# y+ ()         
# Time          	patch           	min             	max             	average         
0.005           	airfoil	1.89678472e-08	5.53795764e-06	3.32274144e-07
0.01            	airfoil	4.12386650e-06	4.16552316e-04	6.70407181e-05
0.015           	airfoil	9.14829433e-08	4.14607432e-04	5.14036909e-05
0.02            	airfoil	8.66997538e-07	2.24035388e-04	4.12588067e-05
0.025           	airfoil	2.11695569e-06	2.90060697e-04	5.27721389e-05
0.03            	airfoil	2.97611284e-06	3.94619857e-04	6.84948799e-05
0.035           	airfoil	4.63196496e-06	4.64046038e-04	8.19140895e-05
0.04            	airfoil	5.48906231e-06	5.05046625e-04	9.41151281e-05
0.045           	airfoil	6.02137196e-06	5.36513330e-04	1.07772521e-04
0.05            	airfoil	3.47868167e-06	5.67063990e-04	1.20983765e-04
0.055           	airfoil	6.29568393e-06	6.69856746e-04	1.34247776e-04
0.06            	airfoil	3.29181653e-06	7.79365218e-04	1.47650626e-04
0.065           	airfoil	3.99349515e-06	8.93543902e-04	1.61011140e-04
0.07            	airfoil	2.54916225e-06	1.02799760e-03	1.72311011e-04
0.075           	airfoil	6.39794992e-06	1.13829805e-03	1.84411181e-04
0.08            	airfoil	6.27990056e-06	1.23405653e-03	1.97836412e-04
0.085           	airfoil	2.18292063e-06	1.36194259e-03	2.08676391e-04
0.09            	airfoil	4.93306329e-06	1.48465000e-03	2.18607522e-04
0.095           	airfoil	4.77229732e-06	1.60229593e-03	2.28033467e-04
0.1             	airfoil	2.48751454e-06	1.72164730e-03	2.37256625e-04
0.105           	airfoil	7.58572311e-06	1.83887501e-03	2.47146587e-04
0.11            	airfoil	7.07664631e-06	1.95307802e-03	2.59159823e-04
0.115           	airfoil	1.31673764e-05	2.06321872e-03	2.70082760e-04
0.12            	airfoil	4.76949695e-06	2.16822729e-03	2.79846683e-04
0.125           	airfoil	7.04696136e-06	2.26713280e-03	2.88682466e-04
0.13            	airfoil	1.32385888e-05	2.36300068e-03	2.97342236e-04
0.135           	airfoil	1.34372397e-05	2.45837905e-03	3.05617224e-04
0.14            	airfoil	2.70703914e-07	2.55143345e-03	3.13726184e-04
0.145           	airfoil	1.21628131e-05	2.64108023e-03	3.21664175e-04
0.15            	airfoil	6.49627922e-06	2.72676341e-03	3.29875165e-04
0.155           	airfoil	1.16086791e-05	2.80831753e-03	3.38055889e-04
0.16            	airfoil	9.35062553e-06	2.88576438e-03	3.46341097e-04
0.165           	airfoil	8.02012096e-06	2.95917820e-03	3.54749412e-04
0.17            	airfoil	8.98578147e-06	3.02875044e-03	3.63428737e-04
0.175           	airfoil	5.29724665e-06	3.09475000e-03	3.72173201e-04
0.18            	airfoil	9.64093199e-06	3.15746756e-03	3.80853452e-04
0.185           	airfoil	5.65547453e-06	3.21719011e-03	3.89634980e-04
0.19            	airfoil	3.41393875e-06	3.27418195e-03	3.98627188e-04
0.195           	airfoil	7.08575854e-06	3.32867617e-03	4.07608228e-04
0.2             	airfoil	1.99951899e-06	3.38086852e-03	4.17042050e-04
0.205           	airfoil	6.86918431e-06	3.43091706e-03	4.27857980e-04
0.21            	airfoil	6.41853434e-06	3.47894154e-03	4.38790523e-04
0.215           	airfoil	2.31102666e-06	3.52502749e-03	4.49743320e-04
0.22            	airfoil	6.81650203e-06	3.56923851e-03	4.60796652e-04
0.225           	airfoil	6.70236575e-06	3.61162795e-03	4.71741870e-04
0.23            	airfoil	1.03840159e-05	3.65223928e-03	4.82529195e-04
0.235           	airfoil	7.37283624e-06	3.69111136e-03	4.93331751e-04
0.24            	airfoil	7.88886881e-06	3.72827972e-03	5.03894496e-04
0.245           	airfoil	1.24477442e-06	3.76377667e-03	5.14303254e-04
0.25            	airfoil	7.92684026e-07	3.79763351e-03	5.24545238e-04
0.255           	airfoil	3.27746155e-06	3.82987918e-03	5.34822918e-04
0.26            	airfoil	4.90266832e-06	3.86054320e-03	5.45051212e-04
0.265           	airfoil	6.54042543e-06	3.88965629e-03	5.55147137e-04
0.27            	airfoil	7.61411373e-06	3.92929299e-03	5.65220531e-04
0.275           	airfoil	3.43945958e-06	3.97133607e-03	5.75251576e-04
0.28            	airfoil	9.75356767e-06	4.02713523e-03	5.83706796e-04
0.285           	airfoil	1.04687482e-05	4.06575263e-03	5.94848174e-04
0.29            	airfoil	7.92603793e-06	4.09678361e-03	6.05749282e-04
0.295           	airfoil	4.97098020e-06	4.12383610e-03	6.16437245e-04
0.3             	airfoil	3.78938051e-06	4.13972321e-03	6.29710205e-04
0.305           	airfoil	1.55968965e-05	4.16515468e-03	6.41016866e-04
0.31            	airfoil	1.47364554e-05	4.18825680e-03	6.52061878e-04
0.315           	airfoil	1.33883670e-05	4.20844235e-03	6.63357429e-04
0.32            	airfoil	1.59819887e-05	4.22651308e-03	6.74585026e-04
0.325           	airfoil	5.23558739e-06	4.24305579e-03	6.85611681e-04
0.33            	airfoil	7.46284793e-06	4.25841041e-03	6.96744483e-04
0.335           	airfoil	1.37742114e-05	4.29065177e-03	7.09369529e-04
0.34            	airfoil	5.98554510e-06	4.31759587e-03	7.19654978e-04
0.345           	airfoil	4.10429742e-06	4.34490199e-03	7.30059675e-04
0.35            	airfoil	6.16030116e-06	4.37332748e-03	7.40629546e-04
0.355           	airfoil	1.38270054e-05	4.40155237e-03	7.51209129e-04
0.36            	airfoil	1.80021859e-05	4.42888404e-03	7.61835658e-04
0.365           	airfoil	8.01645183e-06	4.45508004e-03	7.72482707e-04
0.37            	airfoil	2.06323849e-05	4.48009311e-03	7.83128456e-04
0.375           	airfoil	1.76778007e-05	4.50406460e-03	7.93685837e-04
0.38            	airfoil	4.91678465e-06	4.53281285e-03	8.04164532e-04
0.385           	airfoil	1.45143890e-05	4.56027595e-03	8.14645241e-04
0.39            	airfoil	1.69087269e-05	4.58650641e-03	8.25024767e-04
0.395           	airfoil	1.25564725e-05	4.61155300e-03	8.35294002e-04
0.4             	airfoil	1.18676965e-05	4.63546721e-03	8.45518874e-04
0.405           	airfoil	1.95476105e-05	4.65829459e-03	8.55643863e-04
0.41            	airfoil	2.26499405e-05	4.68008147e-03	8.65662096e-04
0.415           	airfoil	2.36832176e-05	4.70087247e-03	8.75603224e-04
0.42            	airfoil	9.17717161e-06	4.72071025e-03	8.85394841e-04
0.425           	airfoil	4.88995995e-06	4.73963861e-03	8.95125246e-04
0.43            	airfoil	3.26365437e-05	4.75770421e-03	9.04799676e-04
0.435           	airfoil	6.19632745e-06	4.77495946e-03	9.14307564e-04
0.44            	airfoil	2.96893280e-05	4.79145845e-03	9.23721813e-04
0.445           	airfoil	3.28222030e-05	4.80725734e-03	9.33019695e-04
0.45            	airfoil	2.11938675e-05	4.82241168e-03	9.42215781e-04
0.455           	airfoil	9.75197166e-06	4.83697940e-03	9.51307013e-04
0.46            	airfoil	2.39310973e-05	4.85101600e-03	9.60327798e-04
0.465           	airfoil	1.68127307e-05	4.86457139e-03	9.69250523e-04
0.47            	airfoil	2.75896884e-05	4.87769421e-03	9.78113249e-04
0.475           	airfoil	2.06210560e-05	4.89043478e-03	9.86905967e-04
0.48            	airfoil	1.85028503e-06	4.90283518e-03	9.95612657e-04
0.485           	airfoil	2.12330065e-05	4.91493609e-03	1.00427541e-03
0.49            	airfoil	3.09632005e-05	4.92677560e-03	1.01285482e-03
0.495           	airfoil	9.93629743e-06	4.93838867e-03	1.02134372e-03
0.5             	airfoil	1.17972099e-05	4.94980817e-03	1.02979956e-03
0.505           	airfoil	2.43552084e-05	4.96106444e-03	1.03818526e-03
0.51            	airfoil	2.82038191e-05	4.97218517e-03	1.04648885e-03
0.515           	airfoil	3.12523737e-05	4.98319756e-03	1.05473918e-03
0.52            	airfoil	1.87839631e-05	4.99412260e-03	1.06294660e-03
0.525           	airfoil	3.04580362e-05	5.00498360e-03	1.07112247e-03
0.53            	airfoil	1.71116518e-05	5.01579882e-03	1.07922478e-03
0.535           	airfoil	2.27909580e-05	5.02658299e-03	1.08727410e-03
0.54            	airfoil	3.53580312e-05	5.03735482e-03	1.09526875e-03
0.545           	airfoil	4.22970875e-05	5.04812568e-03	1.10322470e-03
0.55            	airfoil	5.48088758e-06	5.05890232e-03	1.11111007e-03
0.555           	airfoil	2.86605742e-05	5.06969424e-03	1.11899859e-03
0.56            	airfoil	3.47392864e-05	5.08050722e-03	1.12685315e-03
0.565           	airfoil	1.27370415e-05	5.09134470e-03	1.13465466e-03
0.57            	airfoil	6.27241860e-05	5.10220821e-03	1.14248850e-03
0.575           	airfoil	4.34330674e-05	5.11309754e-03	1.15022473e-03
0.58            	airfoil	3.15701887e-05	5.12401130e-03	1.15792947e-03
0.585           	airfoil	3.42421672e-05	5.13494563e-03	1.16561407e-03
0.59            	airfoil	2.18463581e-05	5.14589912e-03	1.17332522e-03
0.595           	airfoil	2.86874929e-05	5.15686581e-03	1.18106096e-03
0.6             	airfoil	2.97845210e-05	5.16784019e-03	1.18877019e-03
0.605           	airfoil	2.84053019e-05	5.17881683e-03	1.19642987e-03
0.61            	airfoil	1.06194309e-05	5.18978964e-03	1.20405670e-03
0.615           	airfoil	4.22765894e-05	5.20075275e-03	1.21180275e-03
0.62            	airfoil	3.37460013e-05	5.21169997e-03	1.21952641e-03
0.625           	airfoil	5.19259876e-05	5.22262539e-03	1.22726131e-03
0.63            	airfoil	2.21933131e-05	5.23352284e-03	1.23496446e-03
0.635           	airfoil	2.20960410e-05	5.24438668e-03	1.24274972e-03
0.64            	airfoil	2.50082436e-05	5.25521131e-03	1.25067537e-03
0.645           	airfoil	3.44175146e-05	5.26597451e-03	1.25874163e-03
0.65            	airfoil	1.21095313e-05	5.27505136e-03	1.26676014e-03
0.655           	airfoil	5.37407773e-05	5.27937326e-03	1.27464191e-03
0.66            	airfoil	3.38613798e-05	5.27773583e-03	1.28215072e-03
0.665           	airfoil	3.84124151e-05	5.27078663e-03	1.28918324e-03
0.67            	airfoil	4.78051252e-05	5.26022239e-03	1.29573610e-03
0.675           	airfoil	1.80677514e-05	5.24793120e-03	1.30196073e-03
0.68            	airfoil	6.10311904e-05	5.23572689e-03	1.30794121e-03
0.685           	airfoil	1.94157784e-05	5.23620676e-03	1.31376635e-03
0.69            	airfoil	4.26027649e-05	5.23657556e-03	1.31956655e-03
0.695           	airfoil	2.01487260e-05	5.23720532e-03	1.32557009e-03
0.7             	airfoil	2.30609770e-05	5.23836315e-03	1.33171199e-03
0.705           	airfoil	1.98294067e-05	5.24022934e-03	1.33797879e-03
0.71            	airfoil	3.72160181e-05	5.24292142e-03	1.34450031e-03
0.715           	airfoil	4.30623600e-05	5.24649864e-03	1.35117808e-03
0.72            	airfoil	4.27807846e-05	5.25097286e-03	1.35787917e-03
0.725           	airfoil	4.37530973e-05	5.25632807e-03	1.36482457e-03
0.73            	airfoil	4.22582090e-05	5.26251698e-03	1.37187039e-03
0.735           	airfoil	4.51869609e-05	5.26949400e-03	1.37889908e-03
0.74            	airfoil	1.09469633e-05	5.27717991e-03	1.38590265e-03
0.745           	airfoil	6.34378527e-05	5.28549807e-03	1.39309015e-03
0.75            	airfoil	3.92910673e-05	5.29436512e-03	1.40016875e-03
0.755           	airfoil	4.50864685e-05	5.30369419e-03	1.40718195e-03
0.76            	airfoil	6.42314363e-05	5.31341970e-03	1.41428138e-03
0.765           	airfoil	1.10612394e-05	5.32345867e-03	1.42126359e-03
0.77            	airfoil	6.31268571e-05	5.33373858e-03	1.42821338e-03
0.775           	airfoil	6.72787483e-05	5.34420082e-03	1.43516265e-03
0.78            	airfoil	1.91607506e-05	5.35476583e-03	1.44195914e-03
0.785           	airfoil	5.80405653e-05	5.36538812e-03	1.44866225e-03
0.79            	airfoil	3.00524401e-05	5.37601543e-03	1.45530935e-03
0.795           	airfoil	2.95286372e-05	5.38660785e-03	1.46189271e-03
0.8             	airfoil	1.43389405e-05	5.39711295e-03	1.46832009e-03
0.805           	airfoil	4.57878728e-05	5.40750541e-03	1.47495084e-03
0.81            	airfoil	2.92242827e-05	5.41774661e-03	1.48146730e-03
0.815           	airfoil	3.00401230e-05	5.42780976e-03	1.48789611e-03
0.82            	airfoil	6.03639560e-05	5.43767456e-03	1.49431773e-03
0.825           	airfoil	3.43909528e-05	5.45123525e-03	1.50066938e-03
0.83            	airfoil	1.53900902e-05	5.46344124e-03	1.50686419e-03
0.835           	airfoil	3.20568179e-05	5.47430125e-03	1.51295608e-03
0.84            	airfoil	2.54983490e-05	5.48427357e-03	1.51918544e-03
0.845           	airfoil	1.90916436e-05	5.49361365e-03	1.52549667e-03
0.85            	airfoil	6.05985252e-05	5.50246910e-03	1.53174901e-03
0.855           	airfoil	4.30916670e-05	5.51092914e-03	1.53796194e-03
0.86            	airfoil	3.21149923e-05	5.51905532e-03	1.54408225e-03
0.865           	airfoil	5.00596957e-05	5.52687744e-03	1.55023766e-03
0.87            	airfoil	5.32795678e-05	5.53442964e-03	1.55644952e-03
0.875           	airfoil	4.34595301e-05	5.54173240e-03	1.56251696e-03
0.88            	airfoil	4.44452239e-05	5.54880246e-03	1.56854737e-03
0.885           	airfoil	8.53159953e-05	5.55565244e-03	1.57470556e-03
0.89            	airfoil	1.08938761e-04	5.56229423e-03	1.58065178e-03
0.895           	airfoil	3.37135385e-05	5.56873746e-03	1.58639991e-03
0.9             	airfoil	9.67844733e-05	5.57499090e-03	1.59227834e-03
0.905           	airfoil	8.60378551e-05	5.58106203e-03	1.59804013e-03
0.91            	airfoil	1.04835544e-04	5.58695751e-03	1.60371359e-03
0.915           	airfoil	8.69522918e-05	5.59268347e-03	1.60946682e-03
0.92            	airfoil	1.12246431e-04	5.59824574e-03	1.61521600e-03
0.925           	airfoil	1.12786441e-04	5.60364970e-03	1.62081396e-03
0.93            	airfoil	1.13325168e-04	5.60890031e-03	1.62636046e-03
0.935           	airfoil	1.13869180e-04	5.61400222e-03	1.63197074e-03
0.94            	airfoil	1.14412153e-04	5.61895960e-03	1.63747007e-03
0.945           	airfoil	1.13832144e-04	5.62377632e-03	1.64284889e-03
0.95            	airfoil	1.15454479e-04	5.62845617e-03	1.64833038e-03
0.955           	airfoil	1.15970658e-04	5.63300264e-03	1.65375848e-03
0.96            	airfoil	1.16489342e-04	5.63741902e-03	1.65910705e-03
0.965           	airfoil	1.17011639e-04	5.64170823e-03	1.66445397e-03
0.97            	airfoil	1.17537131e-04	5.64587329e-03	1.66989390e-03
0.975           	airfoil	1.18061189e-04	5.64991691e-03	1.67523697e-03
0.98            	airfoil	1.18580963e-04	5.65384163e-03	1.68048605e-03
0.985           	airfoil	7.66230734e-05	5.65765028e-03	1.68562907e-03
0.99            	airfoil	1.19612416e-04	5.66134511e-03	1.69099133e-03
0.995           	airfoil	1.20125192e-04	5.66492867e-03	1.69624567e-03
1               	airfoil	1.20634612e-04	5.66840292e-03	1.70143984e-03
1.005           	airfoil	1.21139295e-04	5.67177003e-03	1.70658898e-03
1.01            	airfoil	1.21638768e-04	5.67503193e-03	1.71167934e-03
1.015           	airfoil	1.22138887e-04	5.67819087e-03	1.71683986e-03
1.02            	airfoil	1.22636782e-04	5.68124851e-03	1.72208793e-03
1.025           	airfoil	1.23132077e-04	5.68420667e-03	1.72726867e-03
1.03            	airfoil	1.23623465e-04	5.68706701e-03	1.73240135e-03
1.035           	airfoil	1.24119853e-04	5.68983146e-03	1.73749283e-03
1.04            	airfoil	1.24708911e-04	5.69250601e-03	1.74252224e-03
1.045           	airfoil	1.25089372e-04	5.69507377e-03	1.74751101e-03
1.05            	airfoil	1.25655291e-04	5.69755895e-03	1.75237013e-03
1.055           	airfoil	9.52841233e-05	5.69994338e-03	1.75742154e-03
1.06            	airfoil	6.51780991e-05	5.70224879e-03	1.76246888e-03
1.065           	airfoil	1.26967971e-04	5.70445648e-03	1.76754395e-03
1.07            	airfoil	1.27531973e-04	5.70658733e-03	1.77252515e-03
1.075           	airfoil	1.28006108e-04	5.70862684e-03	1.77746792e-03
1.08            	airfoil	1.28459396e-04	5.71058162e-03	1.78235910e-03
1.085           	airfoil	1.28910593e-04	5.71245279e-03	1.78719555e-03
1.09            	airfoil	1.29361450e-04	5.71424106e-03	1.79197659e-03
1.095           	airfoil	1.29813647e-04	5.71594741e-03	1.79670033e-03
1.1             	airfoil	1.30259893e-04	5.71757237e-03	1.80170017e-03
1.105           	airfoil	1.30707654e-04	5.71911708e-03	1.80658590e-03
1.11            	airfoil	1.31160507e-04	5.72058189e-03	1.81141236e-03
1.115           	airfoil	1.31611528e-04	5.72196726e-03	1.81618695e-03
1.12            	airfoil	1.32044217e-04	5.72327415e-03	1.82091126e-03
1.125           	airfoil	1.32466600e-04	5.72450310e-03	1.82558924e-03
1.13            	airfoil	1.32887879e-04	5.72565448e-03	1.83022527e-03
1.135           	airfoil	1.33239585e-04	5.72672587e-03	1.83482380e-03
1.14            	airfoil	3.95139883e-05	5.70318670e-03	1.84259057e-03
1.145           	airfoil	1.34157901e-04	5.73066440e-03	1.84253806e-03
1.15            	airfoil	1.25104136e-04	5.70837649e-03	1.85047323e-03
1.155           	airfoil	1.34989019e-04	5.73418466e-03	1.85102309e-03
1.16            	airfoil	1.35595343e-04	5.71070378e-03	1.85939837e-03
1.165           	airfoil	1.35836507e-04	5.73583077e-03	1.85997811e-03
1.17            	airfoil	1.36424912e-04	5.71198758e-03	1.86834533e-03
1.175           	airfoil	1.36648317e-04	5.73684663e-03	1.86885615e-03
1.18            	airfoil	1.37218416e-04	5.71283645e-03	1.87716377e-03
1.185           	airfoil	1.37575285e-04	5.71290225e-03	1.88104347e-03
1.19            	airfoil	1.37828886e-04	5.73987756e-03	1.88108363e-03
1.195           	airfoil	1.38417191e-04	5.71483555e-03	1.88958883e-03
1.2             	airfoil	1.38787068e-04	5.71397795e-03	1.89353778e-03
1.205           	airfoil	1.39170267e-04	5.71575715e-03	1.89700442e-03
1.21            	airfoil	1.39546778e-04	5.71684941e-03	1.90075968e-03
1.215           	airfoil	1.39925504e-04	5.71726715e-03	1.90486100e-03
1.22            	airfoil	1.39770222e-04	5.71729579e-03	1.90897747e-03
1.225           	airfoil	1.39615693e-04	5.71710595e-03	1.91310133e-03
1.23            	airfoil	1.39465619e-04	5.71678394e-03	1.91718198e-03
1.235           	airfoil	1.39317002e-04	5.71636341e-03	1.92122215e-03
1.24            	airfoil	6.26058516e-05	5.71586022e-03	1.92518445e-03
1.245           	airfoil	1.39020720e-04	5.71528209e-03	1.92938787e-03
1.25            	airfoil	1.38872852e-04	5.71463262e-03	1.93348522e-03
1.255           	airfoil	1.38725272e-04	5.71391410e-03	1.93754923e-03
1.26            	airfoil	1.38577901e-04	5.71312784e-03	1.94162657e-03
1.265           	airfoil	1.38431443e-04	5.71227536e-03	1.94566878e-03
1.27            	airfoil	1.26157576e-04	5.71135782e-03	1.94962151e-03
1.275           	airfoil	9.08662600e-05	5.71037814e-03	1.95347970e-03
1.28            	airfoil	2.63963845e-05	5.70933143e-03	1.95726272e-03
1.285           	airfoil	8.20622319e-05	5.70822770e-03	1.96105537e-03
1.29            	airfoil	1.18623811e-04	5.70705847e-03	1.96479567e-03
1.295           	airfoil	1.37560267e-04	5.70583469e-03	1.96846074e-03
1.3             	airfoil	1.37412516e-04	5.70454870e-03	1.97209063e-03
1.305           	airfoil	1.37268399e-04	5.70320835e-03	1.97566963e-03
1.31            	airfoil	1.37121940e-04	5.70181191e-03	1.97921342e-03
1.315           	airfoil	1.36980766e-04	5.70036204e-03	1.98270038e-03
1.32            	airfoil	1.36835708e-04	5.69885853e-03	1.98616180e-03
1.325           	airfoil	1.36695530e-04	5.69730337e-03	1.98957272e-03
1.33            	airfoil	1.36553288e-04	5.69569726e-03	1.99294582e-03
1.335           	airfoil	1.36414584e-04	5.69404153e-03	1.99626972e-03
1.34            	airfoil	1.36323975e-04	5.69233717e-03	1.99955330e-03
1.345           	airfoil	1.36265663e-04	5.69058525e-03	2.00280115e-03
1.35            	airfoil	1.36215681e-04	5.68878692e-03	2.00601811e-03
1.355           	airfoil	1.36165831e-04	5.68694331e-03	2.00921187e-03
1.36            	airfoil	1.36114793e-04	5.68505572e-03	2.01237476e-03
1.365           	airfoil	1.36059328e-04	5.68312446e-03	2.01550691e-03
1.37            	airfoil	1.36002853e-04	5.68115128e-03	2.01859022e-03
1.375           	airfoil	1.09822406e-04	5.67913672e-03	2.02155663e-03
1.38            	airfoil	1.35885944e-04	5.67708296e-03	2.02485436e-03
1.385           	airfoil	1.35827738e-04	5.67498998e-03	2.02805694e-03
1.39            	airfoil	1.35767255e-04	5.67285834e-03	2.03119874e-03
1.395           	airfoil	1.35707292e-04	5.67069070e-03	2.03429212e-03
1.4             	airfoil	1.35647708e-04	5.66848764e-03	2.03733855e-03
1.405           	airfoil	1.35588458e-04	5.66625019e-03	2.04033863e-03
1.41            	airfoil	1.35529646e-04	5.66397929e-03	2.04329276e-03
1.415           	airfoil	1.35471201e-04	5.66167606e-03	2.04620163e-03
1.42            	airfoil	1.35413385e-04	5.65934174e-03	2.04906563e-03
1.425           	airfoil	1.35356322e-04	5.65697738e-03	2.05189561e-03
1.43            	airfoil	1.35298825e-04	5.65458350e-03	2.05468202e-03
1.435           	airfoil	1.35241947e-04	5.65216158e-03	2.05742220e-03
1.44            	airfoil	1.35185900e-04	5.64971251e-03	2.06013104e-03
1.445           	airfoil	1.35130708e-04	5.64723728e-03	2.06281252e-03
1.45            	airfoil	1.35076215e-04	5.64473666e-03	2.06546764e-03
1.455           	airfoil	1.35022307e-04	5.64221169e-03	2.06808492e-03
1.46            	airfoil	1.34969618e-04	5.63966326e-03	2.07063555e-03
1.465           	airfoil	1.34917469e-04	5.63709188e-03	2.07313517e-03
1.47            	airfoil	1.34865974e-04	5.63449836e-03	2.07558890e-03
1.475           	airfoil	1.34813202e-04	5.63188179e-03	2.07801008e-03
1.48            	airfoil	1.34762910e-04	5.62924652e-03	2.08033198e-03
1.485           	airfoil	1.34713088e-04	5.62658924e-03	2.08275043e-03
1.49            	airfoil	1.34665347e-04	5.62391282e-03	2.08519162e-03
1.495           	airfoil	1.34617175e-04	5.62121353e-03	2.08754728e-03
1.5             	airfoil	1.34570218e-04	5.61849498e-03	2.08987878e-03
1.505           	airfoil	1.34566275e-04	5.61575331e-03	2.09216030e-03
1.51            	airfoil	1.34594942e-04	5.61299160e-03	2.09437251e-03
1.515           	airfoil	1.34643367e-04	5.61020633e-03	2.09658955e-03
1.52            	airfoil	1.34702729e-04	5.60739883e-03	2.09897224e-03
1.525           	airfoil	1.34771311e-04	5.60457016e-03	2.10127326e-03
1.53            	airfoil	1.34846035e-04	5.60172065e-03	2.10354079e-03
1.535           	airfoil	1.34922808e-04	5.59884672e-03	2.10575915e-03
1.54            	airfoil	1.35000377e-04	5.59595195e-03	2.10793985e-03
1.545           	airfoil	1.35079714e-04	5.59303501e-03	2.11007983e-03
1.55            	airfoil	1.35160202e-04	5.59009779e-03	2.11220160e-03
1.555           	airfoil	1.35242858e-04	5.58713957e-03	2.11430145e-03
1.56            	airfoil	1.35323364e-04	5.58415765e-03	2.11635961e-03
1.565           	airfoil	1.35404246e-04	5.58115650e-03	2.11839386e-03
1.57            	airfoil	1.35489213e-04	5.57813864e-03	2.12040161e-03
1.575           	airfoil	1.35570558e-04	5.57509339e-03	2.12238336e-03
1.58            	airfoil	1.35654511e-04	5.57203397e-03	2.12436136e-03
1.585           	airfoil	1.35737850e-04	5.56895483e-03	2.12631651e-03
1.59            	airfoil	1.35821470e-04	5.56585888e-03	2.12824999e-03
1.595           	airfoil	1.35903122e-04	5.56273968e-03	2.13015084e-03
1.6             	airfoil	1.35984559e-04	5.55960418e-03	2.13202016e-03
1.605           	airfoil	1.36067149e-04	5.55645387e-03	2.13387657e-03
1.61            	airfoil	1.36152138e-04	5.55328784e-03	2.13572760e-03
1.615           	airfoil	1.36238522e-04	5.55010735e-03	2.13755607e-03
1.62            	airfoil	1.36323005e-04	5.54690657e-03	2.13935995e-03
1.625           	airfoil	1.36406411e-04	5.54368732e-03	2.14114515e-03
1.63            	airfoil	1.36489487e-04	5.54044971e-03	2.14290678e-03
1.635           	airfoil	1.36573007e-04	5.53719687e-03	2.14464712e-03
1.64            	airfoil	1.36656655e-04	5.53392859e-03	2.14636243e-03
1.645           	airfoil	1.36740540e-04	5.53064065e-03	2.14804872e-03
1.65            	airfoil	1.36824285e-04	5.52733676e-03	2.14970739e-03
1.655           	airfoil	1.36908185e-04	5.52401476e-03	2.15133816e-03
1.66            	airfoil	1.36991855e-04	5.52067537e-03	2.15294361e-03
1.665           	airfoil	1.37075819e-04	5.51731898e-03	2.15453247e-03
1.67            	airfoil	1.37159408e-04	5.51394449e-03	2.15609762e-03
1.675           	airfoil	1.37243288e-04	5.51055347e-03	2.15764744e-03
1.68            	airfoil	1.37326807e-04	5.50745956e-03	2.15918203e-03
1.685           	airfoil	1.37410487e-04	5.50475026e-03	2.16070785e-03
1.69            	airfoil	1.37493895e-04	5.50202836e-03	2.16220635e-03
1.695           	airfoil	1.37577225e-04	5.49929473e-03	2.16368707e-03
1.7             	airfoil	1.37660661e-04	5.49654840e-03	2.16514997e-03
1.705           	airfoil	1.37743313e-04	5.49379041e-03	2.16659343e-03
1.71            	airfoil	1.37826539e-04	5.49101946e-03	2.16800695e-03
1.715           	airfoil	1.37906261e-04	5.48823695e-03	2.16940604e-03
1.72            	airfoil	1.37992945e-04	5.48543958e-03	2.17079466e-03
1.725           	airfoil	1.38076275e-04	5.48263064e-03	2.17216573e-03
1.73            	airfoil	1.38157704e-04	5.47980874e-03	2.17351869e-03
1.735           	airfoil	1.38237957e-04	5.47697350e-03	2.17485379e-03
1.74            	airfoil	1.38317894e-04	5.47412425e-03	2.17617232e-03
1.745           	airfoil	1.38404313e-04	5.47125959e-03	2.17746981e-03
1.75            	airfoil	1.38489071e-04	5.46838090e-03	2.17874820e-03
1.755           	airfoil	1.38571397e-04	5.46548826e-03	2.18000384e-03
1.76            	airfoil	1.38653044e-04	5.46258076e-03	2.18122978e-03
1.765           	airfoil	1.38734484e-04	5.45965805e-03	2.18243737e-03
1.77            	airfoil	1.38815653e-04	5.45671998e-03	2.18362561e-03
1.775           	airfoil	1.38896622e-04	5.45376634e-03	2.18478363e-03
1.78            	airfoil	1.38977372e-04	5.45079738e-03	2.18591908e-03
1.785           	airfoil	1.39058057e-04	5.44781427e-03	2.18702244e-03
1.79            	airfoil	1.38855731e-04	5.43897326e-03	2.18275724e-03
1.795           	airfoil	1.38871805e-04	5.43144987e-03	2.18341736e-03
1.8             	airfoil	1.38950907e-04	5.42591923e-03	2.18475793e-03
1.805           	airfoil	1.39036514e-04	5.42409270e-03	2.18597008e-03
1.81            	airfoil	1.34342503e-04	5.42162344e-03	2.18703161e-03
1.815           	airfoil	1.28118651e-04	5.41880429e-03	2.18799685e-03
1.82            	airfoil	1.21526660e-04	5.41581411e-03	2.18890034e-03
1.825           	airfoil	1.14484776e-04	5.41274067e-03	2.18977040e-03
1.83            	airfoil	1.06895013e-04	5.40962413e-03	2.19062408e-03
1.835           	airfoil	9.86180347e-05	5.40648248e-03	2.19146944e-03
1.84            	airfoil	8.94487056e-05	5.40332376e-03	2.19230808e-03
1.845           	airfoil	7.90722760e-05	5.40015203e-03	2.19313632e-03
1.85            	airfoil	6.69201189e-05	5.39696946e-03	2.19395310e-03
1.855           	airfoil	5.17430045e-05	5.39377752e-03	2.19475345e-03
1.86            	airfoil	2.91240692e-05	5.39057735e-03	2.19553203e-03
1.865           	airfoil	3.17875352e-05	5.38737009e-03	2.19631439e-03
1.87            	airfoil	5.38425806e-05	5.38415687e-03	2.19710097e-03
1.875           	airfoil	6.94161123e-05	5.38093884e-03	2.19786829e-03
1.88            	airfoil	8.22809037e-05	5.37771708e-03	2.19861354e-03
1.885           	airfoil	9.35661425e-05	5.37449273e-03	2.19934086e-03
1.89            	airfoil	1.03784708e-04	5.37126694e-03	2.20005589e-03
1.895           	airfoil	1.13226783e-04	5.36804083e-03	2.20076540e-03
1.9             	airfoil	1.22073162e-04	5.36481537e-03	2.20146049e-03
1.905           	airfoil	1.30445855e-04	5.36159157e-03	2.20214048e-03
1.91            	airfoil	1.38430905e-04	5.35837024e-03	2.20280531e-03
1.915           	airfoil	1.40430815e-04	5.35515233e-03	2.20345800e-03
1.92            	airfoil	1.40467796e-04	5.35193856e-03	2.20409629e-03
1.925           	airfoil	1.40502191e-04	5.34872970e-03	2.20471975e-03
1.93            	airfoil	1.40509637e-04	5.34552634e-03	2.20532599e-03
1.935           	airfoil	1.40503688e-04	5.34232916e-03	2.20591959e-03
1.94            	airfoil	1.40483450e-04	5.33913863e-03	2.20648943e-03
1.945           	airfoil	1.40452165e-04	5.33595536e-03	2.20702971e-03
1.95            	airfoil	1.40413654e-04	5.33277977e-03	2.20749400e-03
1.955           	airfoil	1.40370794e-04	5.32961233e-03	2.20822915e-03
1.96            	airfoil	1.40325402e-04	5.32645341e-03	2.20893611e-03
1.965           	airfoil	1.40278493e-04	5.32330351e-03	2.20959682e-03
1.97            	airfoil	1.40230712e-04	5.32016287e-03	2.21022388e-03
1.975           	airfoil	1.40182465e-04	5.31703182e-03	2.21082397e-03
1.98            	airfoil	1.40134044e-04	5.31391061e-03	2.21141061e-03
1.985           	airfoil	1.40085687e-04	5.31079948e-03	2.21198941e-03
1.99            	airfoil	1.40037379e-04	5.30769856e-03	2.21255523e-03
1.995           	airfoil	1.39989134e-04	5.30460822e-03	2.21310430e-03
2               	airfoil	1.39940977e-04	5.30152853e-03	2.21363514e-03
2.005           	airfoil	1.39892978e-04	5.29845961e-03	2.21414772e-03
2.01            	airfoil	1.39845100e-04	5.29540153e-03	2.21463667e-03
2.015           	airfoil	1.39797379e-04	5.29235438e-03	2.21512551e-03
2.02            	airfoil	1.39750300e-04	5.28931792e-03	2.21563143e-03
2.025           	airfoil	1.39708823e-04	5.28629018e-03	2.21614110e-03
2.03            	airfoil	1.39662366e-04	5.28327638e-03	2.21664841e-03
2.035           	airfoil	1.39614937e-04	5.28027358e-03	2.21715512e-03
2.04            	airfoil	1.39567596e-04	5.27728098e-03	2.21765355e-03
2.045           	airfoil	1.39520434e-04	5.27429864e-03	2.21814704e-03
2.05            	airfoil	1.39473422e-04	5.27132621e-03	2.21863807e-03
2.055           	airfoil	1.39426482e-04	5.26836384e-03	2.21913796e-03
2.06            	airfoil	1.39379955e-04	5.26541105e-03	2.21962770e-03
2.065           	airfoil	1.39333509e-04	5.26246795e-03	2.22010780e-03
2.07            	airfoil	1.39287490e-04	5.25953404e-03	2.22059408e-03
2.075           	airfoil	1.39241376e-04	5.25660944e-03	2.22108035e-03
2.08            	airfoil	1.39195307e-04	5.25369356e-03	2.22155373e-03
2.085           	airfoil	1.39149493e-04	5.25078628e-03	2.22203644e-03
2.09            	airfoil	1.39103819e-04	5.24788704e-03	2.22252062e-03
2.095           	airfoil	1.39057953e-04	5.24499569e-03	2.22298345e-03
2.1             	airfoil	1.39012664e-04	5.24211150e-03	2.22342674e-03
2.105           	airfoil	1.38967304e-04	5.23923430e-03	2.22385241e-03
2.11            	airfoil	1.38922131e-04	5.23636332e-03	2.22425009e-03
2.115           	airfoil	1.38876631e-04	5.23349859e-03	2.22460101e-03
2.12            	airfoil	1.38830626e-04	5.23063946e-03	2.22509235e-03
2.125           	airfoil	1.38784511e-04	5.22778614e-03	2.22570782e-03
2.13            	airfoil	1.38738529e-04	5.22493795e-03	2.22628230e-03
2.135           	airfoil	1.38692502e-04	5.22209526e-03	2.22683728e-03