# y+ ()         
# Time          	patch           	min             	max             	average         
0.005           	airfoil	5.48821080e-07	2.37229094e-05	5.51645985e-06
0.01            	airfoil	3.61532612e-05	1.12773140e-03	2.53556681e-04
0.015           	airfoil	4.32910562e-05	8.36644802e-04	2.14410488e-04
0.02            	airfoil	2.38715284e-05	6.34080689e-04	2.23897135e-04
0.025           	airfoil	2.69219308e-05	8.47603925e-04	2.58790519e-04
0.03            	airfoil	2.08951211e-05	1.05486009e-03	2.87005925e-04
0.035           	airfoil	3.02671937e-05	1.33356086e-03	3.11736127e-04
0.04            	airfoil	3.62002841e-05	1.57646509e-03	3.29556622e-04
0.045           	airfoil	4.39123131e-05	1.79163532e-03	3.39882352e-04
0.05            	airfoil	3.58801840e-05	1.97551870e-03	3.43814638e-04
0.055           	airfoil	1.40093597e-05	2.13239285e-03	3.43396685e-04
0.06            	airfoil	3.69018211e-05	2.26453661e-03	3.40010817e-04
0.065           	airfoil	2.90473246e-05	2.37580668e-03	3.32548769e-04
0.07            	airfoil	2.75456024e-05	2.46661048e-03	3.22882517e-04
0.075           	airfoil	1.66483250e-05	2.53967290e-03	3.19871445e-04
0.08            	airfoil	1.47888369e-05	2.59310864e-03	3.23928307e-04
0.085           	airfoil	1.22533283e-05	2.62843340e-03	3.30303793e-04
0.09            	airfoil	7.83415510e-06	2.64587237e-03	3.42320870e-04
0.095           	airfoil	1.55645952e-05	2.64592361e-03	3.60302280e-04
0.1             	airfoil	1.86366175e-05	2.62885495e-03	3.84360933e-04
0.105           	airfoil	1.63388256e-05	2.59455628e-03	4.12438728e-04
0.11            	airfoil	1.27855485e-05	2.54353417e-03	4.38752136e-04
0.115           	airfoil	2.17495639e-05	2.47632376e-03	4.63830547e-04
0.12            	airfoil	3.68896913e-05	2.39029636e-03	4.88252007e-04
0.125           	airfoil	2.13236386e-05	2.28697820e-03	5.10871012e-04
0.13            	airfoil	4.08914415e-05	2.16579948e-03	5.31642852e-04
0.135           	airfoil	3.02201816e-05	2.08121665e-03	5.51236769e-04
0.14            	airfoil	3.69792820e-05	2.19581102e-03	5.71342291e-04
0.145           	airfoil	3.09127497e-05	2.31274665e-03	5.90331214e-04
0.15            	airfoil	2.64261390e-05	2.43011901e-03	6.08032982e-04
0.155           	airfoil	1.67912331e-05	2.54781513e-03	6.24708806e-04
0.16            	airfoil	3.37962535e-05	2.66590573e-03	6.40720492e-04
0.165           	airfoil	3.16715832e-05	2.78440890e-03	6.55669295e-04
0.17            	airfoil	2.70129964e-05	2.90397227e-03	6.70332126e-04
0.175           	airfoil	2.72882538e-05	3.02540353e-03	6.84644305e-04
0.18            	airfoil	2.64483992e-05	3.14757502e-03	6.98440397e-04
0.185           	airfoil	3.61696339e-05	3.27095645e-03	7.11930799e-04
0.19            	airfoil	3.23388752e-05	3.39627004e-03	7.25197985e-04
0.195           	airfoil	3.25310828e-05	3.52440689e-03	7.38269094e-04
0.2             	airfoil	3.04588364e-05	3.65628950e-03	7.51705549e-04
0.205           	airfoil	4.16632685e-05	3.79287663e-03	7.64971829e-04
0.21            	airfoil	2.23171475e-05	3.93532245e-03	7.78428675e-04
0.215           	airfoil	3.08330946e-05	4.08484807e-03	7.92577950e-04
0.22            	airfoil	3.14005915e-05	4.24453777e-03	8.06921311e-04
0.225           	airfoil	6.30267111e-05	4.41457846e-03	8.21376674e-04
0.23            	airfoil	5.42493748e-05	4.59569389e-03	8.35862933e-04
0.235           	airfoil	6.25218526e-05	4.78886824e-03	8.50384344e-04
0.24            	airfoil	4.63682800e-05	4.99489175e-03	8.65028526e-04
0.245           	airfoil	5.21930854e-05	5.21429005e-03	8.80091819e-04
0.25            	airfoil	1.55971701e-05	5.44726414e-03	8.95589077e-04
0.255           	airfoil	6.45582383e-05	5.70661751e-03	9.14013158e-04
0.26            	airfoil	5.61318004e-05	5.96596639e-03	9.30721296e-04
0.265           	airfoil	6.55796580e-05	6.25141377e-03	9.49625278e-04
0.27            	airfoil	9.10292599e-05	6.53367712e-03	9.66724598e-04
0.275           	airfoil	1.34273440e-04	6.84013315e-03	9.86412541e-04
0.28            	airfoil	1.83775490e-04	7.15362825e-03	1.00646054e-03
0.285           	airfoil	1.93883816e-04	7.45838998e-03	1.02478037e-03
0.29            	airfoil	1.87345541e-04	7.78503376e-03	1.04551399e-03
0.295           	airfoil	1.45610034e-04	8.11980280e-03	1.06693854e-03
0.3             	airfoil	4.03192491e-05	8.45422037e-03	1.08856508e-03
0.305           	airfoil	1.79871192e-04	8.78630515e-03	1.11057835e-03
0.31            	airfoil	1.38016679e-04	9.11422461e-03	1.13315789e-03
0.315           	airfoil	1.02040012e-04	9.43635103e-03	1.15582555e-03
0.32            	airfoil	1.96698362e-04	9.75131904e-03	1.17867542e-03
0.325           	airfoil	2.28655545e-04	1.00580289e-02	1.20157386e-03
0.33            	airfoil	1.72104409e-04	1.03556390e-02	1.22450666e-03
0.335           	airfoil	5.63343755e-05	1.06435344e-02	1.24738567e-03
0.34            	airfoil	1.63239056e-04	1.09212962e-02	1.27072084e-03
0.345           	airfoil	2.42770797e-04	1.11886765e-02	1.29401645e-03
0.35            	airfoil	3.05267668e-04	1.14455730e-02	1.31729753e-03
0.355           	airfoil	3.58863899e-04	1.16920015e-02	1.34056194e-03
0.36            	airfoil	2.99023412e-04	1.19280711e-02	1.36379474e-03
0.365           	airfoil	1.71237714e-04	1.21611006e-02	1.38696389e-03
0.37            	airfoil	1.77212392e-04	1.23892536e-02	1.41017355e-03
0.375           	airfoil	1.46614239e-04	1.26075955e-02	1.43334906e-03
0.38            	airfoil	3.35730115e-04	1.28164133e-02	1.45674505e-03
0.385           	airfoil	3.99323281e-04	1.30160306e-02	1.48004412e-03
0.39            	airfoil	3.80831474e-04	1.32067894e-02	1.50322306e-03
0.395           	airfoil	2.89200701e-04	1.33890494e-02	1.52627897e-03
0.4             	airfoil	1.35408397e-04	1.35718496e-02	1.54917712e-03
0.405           	airfoil	2.17597404e-04	1.37492385e-02	1.57211406e-03
0.41            	airfoil	2.93377198e-04	1.39189481e-02	1.59492920e-03
0.415           	airfoil	2.66555779e-04	1.40813174e-02	1.61754939e-03
0.42            	airfoil	2.36587239e-04	1.42366805e-02	1.63995197e-03
0.425           	airfoil	2.02073298e-04	1.43853596e-02	1.66208624e-03
0.43            	airfoil	1.60062335e-04	1.45276655e-02	1.68384607e-03
0.435           	airfoil	1.01630834e-04	1.46638979e-02	1.70514376e-03
0.44            	airfoil	1.97654107e-05	1.47943446e-02	1.72589302e-03
0.445           	airfoil	2.74526961e-05	1.49275210e-02	1.75016375e-03
0.45            	airfoil	3.01091304e-05	1.50467712e-02	1.77476246e-03
0.455           	airfoil	2.89569087e-05	1.51685113e-02	1.79995536e-03
0.46            	airfoil	2.45422654e-05	1.52777440e-02	1.82484499e-03
0.465           	airfoil	2.41330691e-05	1.53893310e-02	1.85021549e-03
0.47            	airfoil	4.40896288e-05	1.54895765e-02	1.87536626e-03
0.475           	airfoil	1.71060827e-05	1.55920787e-02	1.90080147e-03
0.48            	airfoil	2.44944100e-05	1.56842663e-02	1.92590268e-03
0.485           	airfoil	2.57595178e-05	1.57786268e-02	1.95128302e-03
0.49            	airfoil	5.41602725e-05	1.58635827e-02	1.97639242e-03
0.495           	airfoil	2.23170364e-05	1.59506363e-02	2.00184092e-03
0.5             	airfoil	5.53416521e-05	1.60291018e-02	2.02699248e-03
0.505           	airfoil	1.66923949e-05	1.61046982e-02	2.05203346e-03
0.51            	airfoil	4.86773047e-05	1.61823355e-02	2.07741121e-03
0.515           	airfoil	4.75977745e-05	1.62523668e-02	2.10257258e-03
0.52            	airfoil	5.15216867e-05	1.63199391e-02	2.12765797e-03
0.525           	airfoil	6.30279850e-05	1.63851627e-02	2.15266583e-03
0.53            	airfoil	6.60705245e-05	1.64481327e-02	2.17778732e-03
0.535           	airfoil	7.32199319e-05	1.65089508e-02	2.20285527e-03
0.54            	airfoil	5.44585666e-05	1.65677120e-02	2.22783512e-03
0.545           	airfoil	5.14865863e-05	1.66245054e-02	2.25290859e-03
0.55            	airfoil	2.89743425e-05	1.66794142e-02	2.27792198e-03
0.555           	airfoil	4.94753019e-05	1.67325161e-02	2.30308537e-03
0.56            	airfoil	5.00215213e-05	1.67838841e-02	2.32838617e-03
0.565           	airfoil	6.07931300e-05	1.68335878e-02	2.35374593e-03
0.57            	airfoil	3.68736594e-05	1.68816930e-02	2.37893567e-03
0.575           	airfoil	8.54924999e-05	1.69282621e-02	2.40429665e-03
0.58            	airfoil	3.50693566e-05	1.69733549e-02	2.42950074e-03
0.585           	airfoil	6.61621625e-05	1.70170281e-02	2.45481454e-03
0.59            	airfoil	5.00088646e-05	1.70593361e-02	2.48007704e-03
0.595           	airfoil	4.06450234e-05	1.71003321e-02	2.50530648e-03
0.6             	airfoil	7.92420022e-05	1.71400670e-02	2.53064069e-03
0.605           	airfoil	5.02972340e-05	1.71785898e-02	2.55587899e-03
0.61            	airfoil	6.84951518e-05	1.72159485e-02	2.58117961e-03
0.615           	airfoil	2.13345115e-05	1.72521896e-02	2.60655376e-03
0.62            	airfoil	7.39071274e-05	1.72873578e-02	2.63196488e-03
0.625           	airfoil	8.54689069e-05	1.73214969e-02	2.65732890e-03
0.63            	airfoil	4.52842872e-05	1.73546498e-02	2.68266398e-03
0.635           	airfoil	7.42669342e-05	1.73868587e-02	2.70804351e-03
0.64            	airfoil	6.58852944e-05	1.74181638e-02	2.73338563e-03
0.645           	airfoil	5.12397830e-05	1.74486053e-02	2.75869445e-03
0.65            	airfoil	3.08665662e-05	1.74782225e-02	2.78398379e-03
0.655           	airfoil	4.97070468e-05	1.75070537e-02	2.80937889e-03
0.66            	airfoil	3.06960586e-05	1.75351359e-02	2.83472210e-03
0.665           	airfoil	9.44815697e-05	1.75625055e-02	2.86013833e-03
0.67            	airfoil	5.63219654e-05	1.75891975e-02	2.88548474e-03
0.675           	airfoil	2.80799796e-05	1.76152459e-02	2.91071871e-03
0.68            	airfoil	6.86939662e-05	1.76406832e-02	2.93606093e-03
0.685           	airfoil	5.73659235e-05	1.76655408e-02	2.96131179e-03
0.69            	airfoil	1.18749363e-05	1.76898492e-02	2.98660282e-03
0.695           	airfoil	7.96987115e-05	1.77136378e-02	3.01187852e-03
0.7             	airfoil	8.37773965e-05	1.77369351e-02	3.03711796e-03
0.705           	airfoil	9.22826682e-05	1.77597679e-02	3.06243317e-03
0.71            	airfoil	2.95454396e-05	1.77821621e-02	3.08755700e-03
0.715           	airfoil	4.50125632e-05	1.78041422e-02	3.11270621e-03
0.72            	airfoil	6.85569020e-05	1.78263191e-02	3.13797490e-03
0.725           	airfoil	9.04249977e-05	1.78487017e-02	3.16329328e-03
0.73            	airfoil	6.52817955e-05	1.78706913e-02	3.18844868e-03
0.735           	airfoil	1.47329865e-05	1.78923066e-02	3.21338674e-03
0.74            	airfoil	2.49429682e-05	1.79135662e-02	3.23885577e-03
0.745           	airfoil	9.17357400e-05	1.79344885e-02	3.26435459e-03
0.75            	airfoil	7.96780441e-05	1.79550908e-02	3.28969745e-03
0.755           	airfoil	6.48686225e-05	1.79753899e-02	3.31498551e-03
0.76            	airfoil	6.52676849e-05	1.79954019e-02	3.34019564e-03
0.765           	airfoil	3.37148280e-05	1.80151420e-02	3.36530159e-03
0.77            	airfoil	5.79679096e-05	1.80346247e-02	3.39071248e-03
0.775           	airfoil	6.32726792e-05	1.80538637e-02	3.41621135e-03
0.78            	airfoil	1.91004364e-05	1.80728718e-02	3.44173103e-03
0.785           	airfoil	1.76937058e-05	1.80916614e-02	3.46721425e-03
0.79            	airfoil	2.19979912e-05	1.81113103e-02	3.49279167e-03
0.795           	airfoil	9.56541891e-05	1.81296781e-02	3.51840444e-03
0.8             	airfoil	5.40579098e-05	1.81478606e-02	3.54383145e-03
0.805           	airfoil	8.27706196e-05	1.81668930e-02	3.56943935e-03
0.81            	airfoil	5.64264267e-05	1.81847141e-02	3.59482049e-03
0.815           	airfoil	8.99368660e-06	1.82023747e-02	3.62005577e-03
0.82            	airfoil	2.93588126e-05	1.82208794e-02	3.64545008e-03
0.825           	airfoil	2.11697048e-05	1.82382245e-02	3.67077220e-03
0.83            	airfoil	6.16012293e-05	1.82563985e-02	3.69617918e-03
0.835           	airfoil	7.02251470e-05	1.82734549e-02	3.72134621e-03
0.84            	airfoil	7.24373935e-05	1.82913330e-02	3.74665955e-03
0.845           	airfoil	5.57899105e-05	1.83081216e-02	3.77171080e-03
0.85            	airfoil	3.21333698e-05	1.83257261e-02	3.79679221e-03
0.855           	airfoil	2.83663649e-05	1.83422648e-02	3.82177536e-03
0.86            	airfoil	1.19520593e-04	1.83596139e-02	3.84693534e-03
0.865           	airfoil	1.23779688e-04	1.83759184e-02	3.87181002e-03
0.87            	airfoil	6.01204260e-05	1.83930277e-02	3.89669850e-03
0.875           	airfoil	1.04406095e-04	1.84091118e-02	3.92140794e-03
0.88            	airfoil	6.14637748e-05	1.84259947e-02	3.94612148e-03
0.885           	airfoil	9.83740179e-05	1.84418701e-02	3.97062999e-03
0.89            	airfoil	8.29218488e-05	1.84585380e-02	3.99513597e-03
0.895           	airfoil	5.15233375e-05	1.84742144e-02	4.01962849e-03
0.9             	airfoil	1.88467520e-05	1.84906766e-02	4.04442249e-03
0.905           	airfoil	6.77435733e-05	1.85061618e-02	4.06894394e-03
0.91            	airfoil	1.00362776e-04	1.85224255e-02	4.09353857e-03
0.915           	airfoil	6.13243951e-05	1.85385604e-02	4.11791446e-03
0.92            	airfoil	5.32284417e-05	1.85537665e-02	4.14207353e-03
0.925           	airfoil	8.65393182e-05	1.85697351e-02	4.16625198e-03
0.93            	airfoil	1.08157305e-04	1.85855813e-02	4.19029289e-03
0.935           	airfoil	2.77982237e-05	1.86005177e-02	4.21400179e-03
0.94            	airfoil	6.25543350e-05	1.86162035e-02	4.23838648e-03
0.945           	airfoil	6.56303009e-05	1.86317698e-02	4.26274649e-03
0.95            	airfoil	6.44833622e-05	1.86472338e-02	4.28685790e-03
0.955           	airfoil	8.95620641e-05	1.86618194e-02	4.31089071e-03
0.96            	airfoil	2.71834155e-05	1.86771356e-02	4.33493057e-03
0.965           	airfoil	7.58504169e-05	1.86923375e-02	4.35882660e-03
0.97            	airfoil	3.95875520e-05	1.87074411e-02	4.38249568e-03
0.975           	airfoil	1.24774216e-04	1.87224524e-02	4.40605793e-03
0.98            	airfoil	8.92879364e-05	1.87373739e-02	4.42935171e-03
0.985           	airfoil	1.33610317e-04	1.87522067e-02	4.45282406e-03
0.99            	airfoil	3.89627059e-05	1.87669517e-02	4.47594378e-03
0.995           	airfoil	1.11304799e-04	1.87816091e-02	4.49932954e-03
1               	airfoil	7.34595097e-05	1.87961796e-02	4.52239410e-03
1.005           	airfoil	1.22248836e-04	1.88106638e-02	4.54558483e-03
1.01            	airfoil	5.83787415e-05	1.88250624e-02	4.56854949e-03
1.015           	airfoil	1.50389677e-04	1.88393762e-02	4.59142568e-03
1.02            	airfoil	1.53985121e-04	1.88536063e-02	4.61408635e-03
1.025           	airfoil	6.17335593e-05	1.88677538e-02	4.63653337e-03
1.03            	airfoil	1.30153443e-04	1.88818199e-02	4.65890776e-03
1.035           	airfoil	1.35457956e-04	1.88958056e-02	4.68117386e-03
1.04            	airfoil	7.14915388e-05	1.89097121e-02	4.70343669e-03
1.045           	airfoil	6.78282591e-05	1.89235405e-02	4.72576326e-03
1.05            	airfoil	6.34650123e-05	1.89372919e-02	4.74799787e-03
1.055           	airfoil	8.02869728e-05	1.89509675e-02	4.77007543e-03
1.06            	airfoil	1.31121778e-04	1.89645682e-02	4.79207394e-03
1.065           	airfoil	1.71637329e-04	1.89780952e-02	4.81390985e-03
1.07            	airfoil	7.48995727e-05	1.89915494e-02	4.83553312e-03
1.075           	airfoil	1.04647177e-04	1.90049318e-02	4.85707482e-03
1.08            	airfoil	1.44325892e-04	1.90182434e-02	4.87854766e-03
1.085           	airfoil	4.31519347e-05	1.90314850e-02	4.89982281e-03
1.09            	airfoil	1.11716635e-04	1.90446576e-02	4.92116041e-03
1.095           	airfoil	1.49438538e-04	1.90577620e-02	4.94231100e-03
1.1             	airfoil	5.73530760e-05	1.90707993e-02	4.96325299e-03
1.105           	airfoil	1.60548868e-04	1.90837701e-02	4.98414809e-03
1.11            	airfoil	1.08074038e-04	1.90966754e-02	5.00484270e-03
1.115           	airfoil	8.62214372e-05	1.91095159e-02	5.02553169e-03
1.12            	airfoil	1.84098404e-04	1.91222927e-02	5.04619629e-03
1.125           	airfoil	1.05148859e-04	1.91350063e-02	5.06661962e-03
1.13            	airfoil	1.25991095e-04	1.91476578e-02	5.08719961e-03
1.135           	airfoil	7.14494665e-05	1.91602480e-02	5.10753934e-03
1.14            	airfoil	7.09520159e-05	1.91727776e-02	5.12788002e-03
1.145           	airfoil	1.50037686e-04	1.91852475e-02	5.14826169e-03
1.15            	airfoil	1.62549511e-04	1.91976579e-02	5.16842398e-03
1.155           	airfoil	1.00290647e-05	1.92100089e-02	5.18828209e-03
1.16            	airfoil	1.70954721e-04	1.92223003e-02	5.20841595e-03
1.165           	airfoil	6.40854262e-05	1.92345322e-02	5.22819846e-03
1.17            	airfoil	8.56788284e-05	1.92467045e-02	5.24801516e-03
1.175           	airfoil	1.34838489e-04	1.92588174e-02	5.26778696e-03
1.18            	airfoil	1.22076329e-04	1.92708715e-02	5.28742733e-03
1.185           	airfoil	1.18915364e-04	1.92828673e-02	5.30686682e-03
1.19            	airfoil	3.02281419e-05	1.92948057e-02	5.32608105e-03
1.195           	airfoil	8.99351715e-05	1.93066878e-02	5.34597431e-03
1.2             	airfoil	1.48286324e-04	1.93185144e-02	5.36570209e-03
1.205           	airfoil	8.17618310e-05	1.93302866e-02	5.38515185e-03
1.21            	airfoil	1.21908318e-05	1.93420057e-02	5.40455518e-03
1.215           	airfoil	1.77522582e-04	1.93536727e-02	5.42395136e-03
1.22            	airfoil	8.78549498e-05	1.93652887e-02	5.44301412e-03
1.225           	airfoil	1.02093537e-04	1.93768548e-02	5.46229932e-03
1.23            	airfoil	2.06862911e-04	1.93883720e-02	5.48142454e-03
1.235           	airfoil	1.01116338e-04	1.93998415e-02	5.50045925e-03
1.24            	airfoil	1.53421825e-04	1.94112642e-02	5.51969732e-03
1.245           	airfoil	1.38230192e-04	1.94226411e-02	5.53873163e-03
1.25            	airfoil	6.54902952e-05	1.94339733e-02	5.55762286e-03
1.255           	airfoil	2.00186310e-04	1.94452616e-02	5.57674288e-03
1.26            	airfoil	1.18764853e-04	1.94565069e-02	5.59559874e-03
1.265           	airfoil	1.40831336e-04	1.94677100e-02	5.61428701e-03
1.27            	airfoil	1.77930260e-04	1.94788717e-02	5.63301870e-03
1.275           	airfoil	6.02417272e-05	1.94899928e-02	5.65150216e-03
1.28            	airfoil	1.73786937e-04	1.95010740e-02	5.67017478e-03
1.285           	airfoil	9.88570488e-05	1.95121158e-02	5.68870349e-03
1.29            	airfoil	1.74005891e-04	1.95231191e-02	5.70721558e-03
1.295           	airfoil	1.56840654e-04	1.95340844e-02	5.72547920e-03
1.3             	airfoil	1.28453275e-04	1.95450122e-02	5.74368659e-03
1.305           	airfoil	1.19205138e-04	1.95559032e-02	5.76193002e-03
1.31            	airfoil	5.99805319e-05	1.95667579e-02	5.78006302e-03
1.315           	airfoil	1.34868943e-04	1.95775768e-02	5.79816063e-03
1.32            	airfoil	9.21514482e-05	1.95883603e-02	5.81623195e-03
1.325           	airfoil	1.90526137e-04	1.95991090e-02	5.83419701e-03
1.33            	airfoil	1.40559484e-04	1.96098234e-02	5.85186861e-03
1.335           	airfoil	9.11094416e-05	1.96205039e-02	5.86967701e-03
1.34            	airfoil	1.74714773e-04	1.96311510e-02	5.88756183e-03
1.345           	airfoil	1.27351006e-04	1.96417651e-02	5.90519124e-03
1.35            	airfoil	1.60867781e-04	1.96523467e-02	5.92274842e-03
1.355           	airfoil	8.44192499e-05	1.96628963e-02	5.94030952e-03
1.36            	airfoil	2.23329913e-04	1.96734141e-02	5.95779763e-03
1.365           	airfoil	3.66321687e-05	1.96839006e-02	5.97492682e-03
1.37            	airfoil	1.79214135e-04	1.96943561e-02	5.99229176e-03
1.375           	airfoil	9.58173801e-05	1.97047810e-02	6.00964798e-03
1.38            	airfoil	2.04851431e-04	1.97151755e-02	6.02691847e-03
1.385           	airfoil	1.27681159e-04	1.97255398e-02	6.04393042e-03
1.39            	airfoil	1.57745633e-04	1.97358743e-02	6.06088181e-03
1.395           	airfoil	1.52289381e-04	1.97461791e-02	6.07791999e-03
1.4             	airfoil	1.55677311e-04	1.97564544e-02	6.09477189e-03
1.405           	airfoil	1.71884996e-04	1.97667004e-02	6.11158539e-03
1.41            	airfoil	1.54336263e-04	1.97769174e-02	6.12827552e-03
1.415           	airfoil	1.89910361e-04	1.97871055e-02	6.14510818e-03
1.42            	airfoil	1.34014662e-04	1.97972648e-02	6.16178983e-03
1.425           	airfoil	2.04756568e-04	1.98073957e-02	6.17837802e-03
1.43            	airfoil	1.12859871e-04	1.98174981e-02	6.19473312e-03
1.435           	airfoil	6.07410815e-05	1.98275724e-02	6.21094822e-03
1.44            	airfoil	5.07764230e-05	1.98376184e-02	6.22731735e-03
1.445           	airfoil	2.34934558e-04	1.98476365e-02	6.24387067e-03
1.45            	airfoil	3.42587568e-05	1.98576266e-02	6.26003556e-03
1.455           	airfoil	2.43349964e-04	1.98675888e-02	6.27625589e-03
1.46            	airfoil	8.08532112e-05	1.98775231e-02	6.29218115e-03
1.465           	airfoil	2.27375032e-04	1.98874296e-02	6.30843283e-03
1.47            	airfoil	1.13858387e-04	1.98973083e-02	6.32437052e-03
1.475           	airfoil	2.14227901e-04	1.99071591e-02	6.34025665e-03
1.48            	airfoil	3.22562334e-05	1.99169821e-02	6.35583134e-03
1.485           	airfoil	1.98309213e-04	1.99267771e-02	6.37175307e-03
1.49            	airfoil	1.64723902e-04	1.99365441e-02	6.38766006e-03
1.495           	airfoil	1.81217078e-04	1.99462830e-02	6.40341195e-03
1.5             	airfoil	1.86582317e-04	1.99559936e-02	6.41901208e-03
1.505           	airfoil	1.60233711e-04	1.99656759e-02	6.43441450e-03
1.51            	airfoil	2.05198367e-04	1.99753299e-02	6.45001772e-03
1.515           	airfoil	1.38005605e-04	1.99849555e-02	6.46551141e-03
1.52            	airfoil	1.73350929e-04	1.99945526e-02	6.48090628e-03
1.525           	airfoil	1.15481252e-04	2.00045408e-02	6.49629052e-03
1.53            	airfoil	2.19543870e-04	2.00140558e-02	6.51163812e-03
1.535           	airfoil	7.66193163e-05	2.00235550e-02	6.52708003e-03
1.54            	airfoil	2.54097658e-04	2.00334426e-02	6.54264418e-03
1.545           	airfoil	4.36732561e-05	2.00428642e-02	6.55770988e-03
1.55            	airfoil	1.11795390e-04	2.00526753e-02	6.57289070e-03
1.555           	airfoil	8.02199290e-05	2.00620295e-02	6.58819450e-03
1.56            	airfoil	2.48070773e-04	2.00717695e-02	6.60357980e-03
1.565           	airfoil	1.03363776e-04	2.00810558e-02	6.61847544e-03
1.57            	airfoil	1.99625595e-04	2.00907239e-02	6.63364110e-03
1.575           	airfoil	1.13185430e-04	2.01003284e-02	6.64911327e-03
1.58            	airfoil	2.41181724e-04	2.01098862e-02	6.66445842e-03
1.585           	airfoil	1.18196958e-04	2.01194345e-02	6.67947622e-03
1.59            	airfoil	2.44104518e-04	2.01291171e-02	6.69481669e-03
1.595           	airfoil	1.12730806e-04	2.01387567e-02	6.71005221e-03
1.6             	airfoil	2.52002389e-04	2.01483529e-02	6.72521631e-03
1.605           	airfoil	9.22406083e-05	2.01579052e-02	6.74021697e-03
1.61            	airfoil	1.53424529e-04	2.01674132e-02	6.75561876e-03
1.615           	airfoil	2.33260485e-05	2.01768765e-02	6.77071124e-03
1.62            	airfoil	2.65417103e-04	2.01862952e-02	6.78600730e-03
1.625           	airfoil	1.10049101e-04	2.01956693e-02	6.80151013e-03
1.63            	airfoil	2.37395231e-04	2.02049989e-02	6.81689433e-03
1.635           	airfoil	1.47959603e-04	2.02142843e-02	6.83184924e-03
1.64            	airfoil	1.90916714e-04	2.02235257e-02	6.84755787e-03
1.645           	airfoil	2.34896441e-04	2.02327232e-02	6.86297351e-03
1.65            	airfoil	9.87131929e-05	2.02418771e-02	6.87804954e-03
1.655           	airfoil	2.47622839e-04	2.02509873e-02	6.89362988e-03
1.66            	airfoil	2.25722918e-05	2.02600541e-02	6.90900126e-03
1.665           	airfoil	1.93288772e-04	2.02690775e-02	6.92456056e-03
1.67            	airfoil	2.34780220e-04	2.02780574e-02	6.93969457e-03
1.675           	airfoil	5.62310981e-05	2.02869938e-02	6.95536447e-03
1.68            	airfoil	2.36145953e-04	2.02958868e-02	6.97154015e-03
1.685           	airfoil	2.32890989e-04	2.03047364e-02	6.98730210e-03
1.69            	airfoil	1.00601841e-04	2.03135424e-02	7.00266058e-03
1.695           	airfoil	2.06600611e-04	2.03223049e-02	7.01895093e-03
1.7             	airfoil	2.76943551e-04	2.03310239e-02	7.03495376e-03
1.705           	airfoil	1.28176109e-04	2.03396991e-02	7.05067964e-03
1.71            	airfoil	9.95458118e-05	2.03483306e-02	7.06629818e-03
1.715           	airfoil	2.20471539e-04	2.03569181e-02	7.08205181e-03
1.72            	airfoil	1.90627653e-04	2.03654616e-02	7.09838756e-03
1.725           	airfoil	1.17541346e-04	2.03739610e-02	7.11444461e-03
1.73            	airfoil	2.51691177e-04	2.03824162e-02	7.13046559e-03
1.735           	airfoil	2.66743656e-04	2.03908271e-02	7.14625216e-03
1.74            	airfoil	1.51542753e-04	2.03991935e-02	7.16174177e-03
1.745           	airfoil	1.55407056e-04	2.04075153e-02	7.17826868e-03
1.75            	airfoil	2.40234736e-04	2.04162626e-02	7.19614017e-03
1.755           	airfoil	3.00912569e-04	2.04249330e-02	7.21371660e-03
1.76            	airfoil	2.59767738e-04	2.04335408e-02	7.23108297e-03
1.765           	airfoil	1.83413552e-04	2.04420903e-02	7.24819562e-03
1.77            	airfoil	4.28744318e-05	2.04505815e-02	7.26524863e-03
1.775           	airfoil	1.73637803e-04	2.04590128e-02	7.28343272e-03
1.78            	airfoil	2.43179202e-04	2.04673825e-02	7.30122448e-03
1.785           	airfoil	2.94834648e-04	2.04756890e-02	7.31881304e-03
1.79            	airfoil	2.80818602e-04	2.04839313e-02	7.33622730e-03
1.795           	airfoil	2.33663808e-04	2.04921089e-02	7.35346775e-03
1.8             	airfoil	1.80241593e-04	2.05002214e-02	7.37048422e-03
1.805           	airfoil	1.15278112e-04	2.05082688e-02	7.38736026e-03
1.81            	airfoil	8.02754845e-05	2.05162515e-02	7.40520582e-03
1.815           	airfoil	1.49335224e-04	2.05241697e-02	7.42276925e-03
1.82            	airfoil	1.94508572e-04	2.05320241e-02	7.44012860e-03
1.825           	airfoil	2.31997513e-04	2.05398150e-02	7.45732196e-03
1.83            	airfoil	9.19977358e-05	2.05475432e-02	7.47432673e-03
1.835           	airfoil	2.08147015e-04	2.05552092e-02	7.49137222e-03
1.84            	airfoil	2.89456332e-04	2.05628135e-02	7.50822798e-03
1.845           	airfoil	2.55417654e-04	2.05703567e-02	7.52479043e-03
1.85            	airfoil	2.12910910e-04	2.05778392e-02	7.54180621e-03
1.855           	airfoil	1.59016032e-04	2.05852615e-02	7.55918003e-03
1.86            	airfoil	7.11768769e-05	2.05926241e-02	7.57626276e-03
1.865           	airfoil	1.24072184e-04	2.05999276e-02	7.59327080e-03
1.87            	airfoil	1.86828731e-04	2.06071722e-02	7.61013800e-03
1.875           	airfoil	2.32276499e-04	2.06143585e-02	7.62685618e-03
1.88            	airfoil	2.67621050e-04	2.06214868e-02	7.64343639e-03
1.885           	airfoil	2.97135895e-04	2.06285576e-02	7.65988390e-03
1.89            	airfoil	2.86933515e-04	2.06355712e-02	7.67619682e-03
1.895           	airfoil	2.59306442e-04	2.06425280e-02	7.69237244e-03
1.9             	airfoil	2.30027337e-04	2.06494284e-02	7.70839061e-03
1.905           	airfoil	2.02800676e-04	2.06562726e-02	7.72420571e-03
1.91            	airfoil	1.29155107e-04	2.06630610e-02	7.73937278e-03
1.915           	airfoil	1.28646778e-04	2.06697940e-02	7.75649036e-03
1.92            	airfoil	3.12780368e-05	2.06764718e-02	7.77300323e-03
1.925           	airfoil	1.28010547e-04	2.06830948e-02	7.78943743e-03
1.93            	airfoil	1.87790370e-04	2.06896633e-02	7.80568824e-03
1.935           	airfoil	2.39954028e-04	2.06961775e-02	7.82179684e-03
1.94            	airfoil	2.86291451e-04	2.07026378e-02	7.83777309e-03
1.945           	airfoil	2.93445167e-04	2.07090443e-02	7.85362302e-03
1.95            	airfoil	2.41392510e-04	2.07153974e-02	7.86934669e-03
1.955           	airfoil	1.69709180e-04	2.07216972e-02	7.88493965e-03
1.96            	airfoil	5.33339886e-05	2.07279442e-02	7.90038386e-03
1.965           	airfoil	1.87852800e-04	2.07341386e-02	7.91588986e-03
1.97            	airfoil	2.63042343e-04	2.07402807e-02	7.93123395e-03
1.975           	airfoil	2.67698002e-04	2.07463707e-02	7.94644037e-03
1.98            	airfoil	1.38493130e-04	2.07524092e-02	7.96149011e-03
1.985           	airfoil	1.08636609e-04	2.07580883e-02	7.97508634e-03
1.99            	airfoil	2.05336900e-04	2.07637294e-02	7.98886308e-03
1.995           	airfoil	3.06322612e-04	2.07693302e-02	8.00253515e-03
2               	airfoil	2.40867694e-04	2.07748896e-02	8.01606727e-03
2.005           	airfoil	7.47976855e-05	2.07804086e-02	8.02942101e-03
2.01            	airfoil	2.15874221e-04	2.07858883e-02	8.04285418e-03
2.015           	airfoil	3.10417300e-04	2.07913303e-02	8.05606288e-03
2.02            	airfoil	2.36291435e-04	2.07967359e-02	8.06918604e-03
2.025           	airfoil	8.17479478e-05	2.08021060e-02	8.08321669e-03
2.03            	airfoil	2.02552210e-04	2.08074416e-02	8.09713515e-03
2.035           	airfoil	2.97151593e-04	2.08127433e-02	8.11089742e-03
2.04            	airfoil	2.53990757e-04	2.08180115e-02	8.12454053e-03
2.045           	airfoil	1.28504655e-04	2.08232465e-02	8.13807060e-03
2.05            	airfoil	1.78046529e-04	2.08284488e-02	8.15165687e-03
2.055           	airfoil	2.83955976e-04	2.08336184e-02	8.16521980e-03
2.06            	airfoil	2.70690962e-04	2.08387557e-02	8.17869778e-03
2.065           	airfoil	1.50909197e-04	2.08438607e-02	8.19208702e-03
2.07            	airfoil	1.73177868e-04	2.08489338e-02	8.20552015e-03
2.075           	airfoil	2.89868794e-04	2.08539752e-02	8.21895989e-03
2.08            	airfoil	2.66810087e-04	2.08589852e-02	8.23230505e-03
2.085           	airfoil	1.00202628e-04	2.08637322e-02	8.24543127e-03
2.09            	airfoil	1.80155435e-04	2.08687020e-02	8.25890666e-03
2.095           	airfoil	2.89877246e-04	2.08733973e-02	8.27228030e-03
2.1             	airfoil	1.91399432e-04	2.08783124e-02	8.28560970e-03
2.105           	airfoil	1.91840953e-04	2.08829552e-02	8.29886833e-03
2.11            	airfoil	3.38424638e-04	2.08875825e-02	8.31215026e-03
2.115           	airfoil	2.02329771e-04	2.08921897e-02	8.32529867e-03
2.12            	airfoil	2.05640570e-04	2.08967758e-02	8.33846510e-03
2.125           	airfoil	3.40843297e-04	2.09013409e-02	8.35164866e-03
2.13            	airfoil	1.56268048e-04	2.09058858e-02	8.36466384e-03
2.135           	airfoil	2.61733397e-04	2.09104113e-02	8.37778333e-03