# Force and moment coefficients
# dragDir     : (9.876890e-01 1.564302e-01 0.000000e+00)
# sideDir     : (0.000000e+00 0.000000e+00 -1.000000e+00)
# liftDir     : (-1.564302e-01 9.876890e-01 0.000000e+00)
# rollAxis    : (9.876890e-01 1.564302e-01 0.000000e+00)
# pitchAxis   : (0.000000e+00 0.000000e+00 -1.000000e+00)
# yawAxis     : (-1.564302e-01 9.876890e-01 0.000000e+00)
# magUInf     : 3.660000e+01
# lRef        : 1.000000e+00
# Aref        : 1.500000e-01
# CofR        : (0.000000e+00 0.000000e+00 0.000000e+00)
#
# Time        	Cd            	Cd(f)         	Cd(r)         	Cl            	Cl(f)         	Cl(r)         	CmPitch       	CmRoll        	CmYaw         	Cs            	Cs(f)         	Cs(r)         
0.005         	1.613394e+00	6.516032e-01	9.617909e-01	2.067918e+00	-4.834889e-01	2.551407e+00	-1.517448e+00	-1.550939e-01	1.210046e-01	-1.358544e-19	1.210046e-01	-1.210046e-01
0.01          	1.889719e-01	7.562258e-02	1.133493e-01	2.515115e-01	2.904859e-02	2.224630e-01	-9.670718e-02	-1.886337e-02	1.417289e-02	-7.100462e-21	1.417289e-02	-1.417289e-02
0.015         	7.785927e-02	3.061901e-02	4.724026e-02	1.108084e-01	5.267284e-02	5.813551e-02	-2.731338e-03	-8.310626e-03	5.839445e-03	-2.647494e-22	5.839445e-03	-5.839445e-03
0.02          	8.860874e-02	3.317898e-02	5.542975e-02	1.483385e-01	3.757855e-02	1.107599e-01	-3.659067e-02	-1.112538e-02	6.645655e-03	1.215686e-22	6.645655e-03	-6.645655e-03
0.025         	1.166002e-01	4.170423e-02	7.489601e-02	2.212786e-01	2.015582e-02	2.011227e-01	-9.048346e-02	-1.659589e-02	8.745018e-03	-1.570811e-22	8.745018e-03	-8.745018e-03
0.03          	1.406830e-01	4.929619e-02	9.138685e-02	2.806044e-01	8.670873e-03	2.719335e-01	-1.316313e-01	-2.104533e-02	1.055123e-02	-3.515971e-22	1.055123e-02	-1.055123e-02
0.035         	1.605750e-01	5.576707e-02	1.048079e-01	3.269390e-01	1.010123e-03	3.259289e-01	-1.624594e-01	-2.452043e-02	1.204312e-02	-4.551014e-22	1.204312e-02	-1.204312e-02
0.04          	1.751917e-01	6.058677e-02	1.146049e-01	3.601211e-01	-3.236728e-03	3.633578e-01	-1.832973e-01	-2.700908e-02	1.313938e-02	-4.744178e-22	1.313938e-02	-1.313938e-02
0.045         	1.864101e-01	6.427532e-02	1.221348e-01	3.857300e-01	-4.597839e-03	3.903278e-01	-1.974628e-01	-2.892975e-02	1.398076e-02	-4.339558e-22	1.398076e-02	-1.398076e-02
0.05          	1.914727e-01	6.612808e-02	1.253446e-01	3.947768e-01	-3.028551e-03	3.978054e-01	-2.004170e-01	-2.960826e-02	1.436045e-02	-3.797088e-22	1.436045e-02	-1.436045e-02
0.055         	1.945040e-01	6.718657e-02	1.273174e-01	4.008724e-01	5.922760e-04	4.002801e-01	-1.998439e-01	-3.006543e-02	1.458780e-02	-2.861280e-22	1.458780e-02	-1.458780e-02
0.06          	1.950649e-01	6.744010e-02	1.276248e-01	4.012315e-01	5.713663e-03	3.955178e-01	-1.949021e-01	-3.009236e-02	1.462987e-02	-1.414681e-22	1.462987e-02	-1.462987e-02
0.065         	1.935768e-01	6.702988e-02	1.265469e-01	3.967802e-01	1.162916e-02	3.851511e-01	-1.867610e-01	-2.975852e-02	1.451826e-02	8.037740e-24	1.451826e-02	-1.451826e-02
0.07          	1.905179e-01	6.610571e-02	1.244122e-01	3.887098e-01	1.845591e-02	3.702539e-01	-1.758990e-01	-2.915323e-02	1.428884e-02	1.648092e-22	1.428884e-02	-1.428884e-02
0.075         	1.859398e-01	6.469274e-02	1.212470e-01	3.770287e-01	2.591234e-02	3.511164e-01	-1.626020e-01	-2.827715e-02	1.394548e-02	3.153087e-22	1.394548e-02	-1.394548e-02
0.08          	1.802483e-01	6.298046e-02	1.172679e-01	3.619161e-01	3.352741e-02	3.283887e-01	-1.474307e-01	-2.714371e-02	1.351863e-02	4.581119e-22	1.351863e-02	-1.351863e-02
0.085         	1.740828e-01	6.113314e-02	1.129496e-01	3.454434e-01	4.121683e-02	3.042266e-01	-1.315049e-01	-2.590826e-02	1.305621e-02	6.090045e-22	1.305621e-02	-1.305621e-02
0.09          	1.679171e-01	5.926403e-02	1.086530e-01	3.292601e-01	4.864494e-02	2.806151e-01	-1.159851e-01	-2.469451e-02	1.259378e-02	7.648040e-22	1.259378e-02	-1.259378e-02
0.095         	1.620249e-01	5.746937e-02	1.045556e-01	3.139079e-01	5.540826e-02	2.584997e-01	-1.015457e-01	-2.354309e-02	1.215187e-02	9.144545e-22	1.215187e-02	-1.215187e-02
0.1           	1.567478e-01	5.584178e-02	1.009060e-01	3.004280e-01	6.121476e-02	2.392133e-01	-8.899925e-02	-2.253210e-02	1.175608e-02	1.059148e-21	1.175608e-02	-1.175608e-02
0.105         	1.522947e-01	5.440351e-02	9.789120e-02	2.899180e-01	6.582063e-02	2.240974e-01	-7.913836e-02	-2.174385e-02	1.142210e-02	1.174529e-21	1.142210e-02	-1.142210e-02
0.11          	1.489228e-01	5.320643e-02	9.571638e-02	2.833997e-01	6.910808e-02	2.142916e-01	-7.259176e-02	-2.125498e-02	1.116921e-02	1.276453e-21	1.116921e-02	-1.116921e-02
0.115         	1.468213e-01	5.226433e-02	9.455693e-02	2.819506e-01	7.098433e-02	2.109663e-01	-6.999099e-02	-2.114630e-02	1.101159e-02	1.379582e-21	1.101159e-02	-1.101159e-02
0.12          	1.459908e-01	5.155847e-02	9.443229e-02	2.858254e-01	7.152833e-02	2.142971e-01	-7.138438e-02	-2.143691e-02	1.094931e-02	1.491137e-21	1.094931e-02	-1.094931e-02
0.125         	1.463372e-01	5.106469e-02	9.527247e-02	2.947185e-01	7.073706e-02	2.239815e-01	-7.662220e-02	-2.210389e-02	1.097529e-02	1.596751e-21	1.097529e-02	-1.097529e-02
0.13          	1.477093e-01	5.071771e-02	9.699160e-02	3.084926e-01	6.889831e-02	2.395943e-01	-8.534798e-02	-2.313694e-02	1.107820e-02	1.702396e-21	1.107820e-02	-1.107820e-02
0.135         	1.498159e-01	5.043992e-02	9.937597e-02	3.262404e-01	6.635304e-02	2.598873e-01	-9.676714e-02	-2.446803e-02	1.123619e-02	1.811224e-21	1.123619e-02	-1.123619e-02
0.14          	1.524151e-01	5.017489e-02	1.022402e-01	3.471021e-01	6.336821e-02	2.837339e-01	-1.101828e-01	-2.603266e-02	1.143113e-02	1.922309e-21	1.143113e-02	-1.143113e-02
0.145         	1.553684e-01	4.991719e-02	1.054512e-01	3.702271e-01	6.008975e-02	3.101373e-01	-1.250238e-01	-2.776703e-02	1.165263e-02	2.036196e-21	1.165263e-02	-1.165263e-02
0.15          	1.584712e-01	4.964399e-02	1.088272e-01	3.945546e-01	5.674486e-02	3.378097e-01	-1.405324e-01	-2.959159e-02	1.188534e-02	2.152490e-21	1.188534e-02	-1.188534e-02
0.155         	1.615475e-01	4.933685e-02	1.122107e-01	4.191589e-01	5.349230e-02	3.656666e-01	-1.560871e-01	-3.143691e-02	1.211606e-02	2.272400e-21	1.211606e-02	-1.211606e-02
0.16          	1.643685e-01	4.897290e-02	1.153956e-01	4.428181e-01	5.056689e-02	3.922512e-01	-1.708422e-01	-3.321136e-02	1.232764e-02	2.392135e-21	1.232764e-02	-1.232764e-02
0.165         	1.667559e-01	4.853369e-02	1.182222e-01	4.645903e-01	4.814000e-02	4.164503e-01	-1.841551e-01	-3.484427e-02	1.250669e-02	2.513256e-21	1.250669e-02	-1.250669e-02
0.17          	1.685174e-01	4.799490e-02	1.205226e-01	4.835177e-01	4.637546e-02	4.371422e-01	-1.953834e-01	-3.626383e-02	1.263881e-02	2.634377e-21	1.263881e-02	-1.263881e-02
0.175         	1.695541e-01	4.734108e-02	1.222130e-01	4.991462e-01	4.538143e-02	4.537647e-01	-2.041916e-01	-3.743596e-02	1.271656e-02	2.755191e-21	1.271656e-02	-1.271656e-02
0.18          	1.698461e-01	4.657335e-02	1.232727e-01	5.113291e-01	4.515592e-02	4.661732e-01	-2.105087e-01	-3.834969e-02	1.273846e-02	2.876111e-21	1.273846e-02	-1.273846e-02
0.185         	1.693823e-01	4.569230e-02	1.236900e-01	5.199846e-01	4.568260e-02	4.743020e-01	-2.143097e-01	-3.899885e-02	1.270367e-02	2.995016e-21	1.270367e-02	-1.270367e-02
0.19          	1.682251e-01	4.471075e-02	1.235144e-01	5.253576e-01	4.688316e-02	4.784745e-01	-2.157956e-01	-3.940182e-02	1.261689e-02	3.111896e-21	1.261689e-02	-1.261689e-02
0.195         	1.664581e-01	4.364389e-02	1.228142e-01	5.278021e-01	4.866370e-02	4.791384e-01	-2.152374e-01	-3.958516e-02	1.248436e-02	3.226523e-21	1.248436e-02	-1.248436e-02
0.2           	1.642124e-01	4.252067e-02	1.216917e-01	5.278069e-01	5.086848e-02	4.769384e-01	-2.130350e-01	-3.958552e-02	1.231593e-02	3.338222e-21	1.231593e-02	-1.231593e-02
0.205         	1.616921e-01	4.137321e-02	1.203189e-01	5.263044e-01	5.329986e-02	4.730046e-01	-2.098524e-01	-3.947283e-02	1.212691e-02	3.446994e-21	1.212691e-02	-1.212691e-02
0.21          	1.590784e-01	4.023760e-02	1.188408e-01	5.240212e-01	5.577586e-02	4.682454e-01	-2.062348e-01	-3.930159e-02	1.193088e-02	3.553114e-21	1.193088e-02	-1.193088e-02
0.215         	1.565577e-01	3.914902e-02	1.174087e-01	5.217309e-01	5.811961e-02	4.636113e-01	-2.027459e-01	-3.912982e-02	1.174183e-02	3.654840e-21	1.174183e-02	-1.174183e-02
0.22          	1.542374e-01	3.812347e-02	1.161139e-01	5.199363e-01	6.021558e-02	4.597208e-01	-1.997526e-01	-3.899523e-02	1.156780e-02	3.752127e-21	1.156780e-02	-1.156780e-02
0.225         	1.522159e-01	3.717360e-02	1.150423e-01	5.191246e-01	6.197543e-02	4.571491e-01	-1.975869e-01	-3.893434e-02	1.141619e-02	3.845832e-21	1.141619e-02	-1.141619e-02
0.23          	1.505886e-01	3.631419e-02	1.142744e-01	5.197349e-01	6.331814e-02	4.564168e-01	-1.965493e-01	-3.898012e-02	1.129415e-02	3.935569e-21	1.129415e-02	-1.129415e-02
0.235         	1.493687e-01	3.554197e-02	1.138267e-01	5.218984e-01	6.424502e-02	4.576534e-01	-1.967042e-01	-3.914238e-02	1.120265e-02	4.022033e-21	1.120265e-02	-1.120265e-02
0.24          	1.485315e-01	3.485026e-02	1.136813e-01	5.255402e-01	6.479169e-02	4.607485e-01	-1.979784e-01	-3.941551e-02	1.113987e-02	4.105174e-21	1.113987e-02	-1.113987e-02
0.245         	1.480428e-01	3.422951e-02	1.138133e-01	5.305586e-01	6.500166e-02	4.655570e-01	-2.002777e-01	-3.979190e-02	1.110321e-02	4.184079e-21	1.110321e-02	-1.110321e-02
0.25          	1.478128e-01	3.365894e-02	1.141539e-01	5.366332e-01	6.497437e-02	4.716588e-01	-2.033422e-01	-4.024749e-02	1.108596e-02	4.258347e-21	1.108596e-02	-1.108596e-02
0.255         	1.477965e-01	3.313423e-02	1.146622e-01	5.435199e-01	6.475946e-02	4.787604e-01	-2.070005e-01	-4.076399e-02	1.108473e-02	4.327933e-21	1.108473e-02	-1.108473e-02
0.26          	1.479076e-01	3.263613e-02	1.152714e-01	5.509021e-01	6.445782e-02	4.864442e-01	-2.109932e-01	-4.131765e-02	1.109307e-02	4.398757e-21	1.109307e-02	-1.109307e-02
0.265         	1.480663e-01	3.215261e-02	1.159137e-01	5.584073e-01	6.413987e-02	4.942675e-01	-2.150638e-01	-4.188055e-02	1.110497e-02	4.471159e-21	1.110497e-02	-1.110497e-02
0.27          	1.481892e-01	3.166797e-02	1.165213e-01	5.656886e-01	6.389384e-02	5.017948e-01	-2.189505e-01	-4.242665e-02	1.111419e-02	4.544861e-21	1.111419e-02	-1.111419e-02
0.275         	1.482158e-01	3.117199e-02	1.170438e-01	5.724789e-01	6.375775e-02	5.087211e-01	-2.224817e-01	-4.293592e-02	1.111619e-02	4.618983e-21	1.111619e-02	-1.111619e-02
0.28          	1.481014e-01	3.065697e-02	1.174444e-01	5.785832e-01	6.376779e-02	5.148154e-01	-2.255238e-01	-4.339374e-02	1.110761e-02	4.692757e-21	1.110761e-02	-1.110761e-02
0.285         	1.478332e-01	3.012409e-02	1.177091e-01	5.839000e-01	6.392719e-02	5.199728e-01	-2.280228e-01	-4.379250e-02	1.108749e-02	4.765954e-21	1.108749e-02	-1.108749e-02
0.29          	1.474153e-01	2.957668e-02	1.178386e-01	5.884130e-01	6.421906e-02	5.241939e-01	-2.299874e-01	-4.413097e-02	1.105615e-02	4.838663e-21	1.105615e-02	-1.105615e-02
0.295         	1.468797e-01	2.902226e-02	1.178574e-01	5.922344e-01	6.460597e-02	5.276285e-01	-2.315113e-01	-4.441758e-02	1.101598e-02	4.910174e-21	1.101598e-02	-1.101598e-02
0.3           	1.462592e-01	2.846751e-02	1.177917e-01	5.954948e-01	6.504939e-02	5.304454e-01	-2.326980e-01	-4.466211e-02	1.096944e-02	4.980399e-21	1.096944e-02	-1.096944e-02
0.305         	1.456147e-01	2.792525e-02	1.176895e-01	5.984282e-01	6.548332e-02	5.329449e-01	-2.337308e-01	-4.488212e-02	1.092110e-02	5.050725e-21	1.092110e-02	-1.092110e-02
0.31          	1.449974e-01	2.740579e-02	1.175916e-01	6.012389e-01	6.585918e-02	5.353797e-01	-2.347603e-01	-4.509292e-02	1.087481e-02	5.119009e-21	1.087481e-02	-1.087481e-02
0.315         	1.444480e-01	2.691470e-02	1.175333e-01	6.041243e-01	6.612993e-02	5.379944e-01	-2.359322e-01	-4.530933e-02	1.083360e-02	5.185735e-21	1.083360e-02	-1.083360e-02
0.32          	1.440084e-01	2.645868e-02	1.175497e-01	6.072734e-01	6.625066e-02	5.410227e-01	-2.373860e-01	-4.554551e-02	1.080063e-02	5.250433e-21	1.080063e-02	-1.080063e-02
0.325         	1.437016e-01	2.603923e-02	1.176624e-01	6.108213e-01	6.620115e-02	5.446201e-01	-2.392095e-01	-4.581160e-02	1.077762e-02	5.313317e-21	1.077762e-02	-1.077762e-02
0.33          	1.435218e-01	2.565316e-02	1.178687e-01	6.147700e-01	6.600052e-02	5.487695e-01	-2.413845e-01	-4.610775e-02	1.076414e-02	5.374939e-21	1.076414e-02	-1.076414e-02
0.335         	1.434787e-01	2.530213e-02	1.181766e-01	6.191632e-01	6.564116e-02	5.535220e-01	-2.439404e-01	-4.643724e-02	1.076090e-02	5.435064e-21	1.076090e-02	-1.076090e-02
0.34          	1.435564e-01	2.498163e-02	1.185748e-01	6.239543e-01	6.513909e-02	5.588152e-01	-2.468381e-01	-4.679657e-02	1.076673e-02	5.493924e-21	1.076673e-02	-1.076673e-02
0.345         	1.437241e-01	2.468509e-02	1.190390e-01	6.290261e-01	6.453586e-02	5.644902e-01	-2.499772e-01	-4.717696e-02	1.077931e-02	5.551838e-21	1.077931e-02	-1.077931e-02
0.35          	1.439535e-01	2.440769e-02	1.195458e-01	6.342542e-01	6.386040e-02	5.703938e-01	-2.532667e-01	-4.756906e-02	1.079651e-02	5.608716e-21	1.079651e-02	-1.079651e-02
0.355         	1.441836e-01	2.413611e-02	1.200474e-01	6.394089e-01	6.318580e-02	5.762231e-01	-2.565186e-01	-4.795567e-02	1.081377e-02	5.665108e-21	1.081377e-02	-1.081377e-02
0.36          	1.443935e-01	2.386771e-02	1.205258e-01	6.443873e-01	6.252850e-02	5.818588e-01	-2.596651e-01	-4.832905e-02	1.082951e-02	5.720828e-21	1.082951e-02	-1.082951e-02
0.365         	1.445533e-01	2.359769e-02	1.209556e-01	6.490530e-01	6.191957e-02	5.871335e-01	-2.626069e-01	-4.867898e-02	1.084150e-02	5.776027e-21	1.084150e-02	-1.084150e-02
0.37          	1.446283e-01	2.331946e-02	1.213088e-01	6.532622e-01	6.139304e-02	5.918692e-01	-2.652381e-01	-4.899467e-02	1.084712e-02	5.830736e-21	1.084712e-02	-1.084712e-02
0.375         	1.445928e-01	2.302853e-02	1.215643e-01	6.569050e-01	6.097510e-02	5.959299e-01	-2.674774e-01	-4.926787e-02	1.084446e-02	5.884902e-21	1.084446e-02	-1.084446e-02
0.38          	1.444427e-01	2.272437e-02	1.217184e-01	6.599600e-01	6.066605e-02	5.992939e-01	-2.693139e-01	-4.949700e-02	1.083321e-02	5.938351e-21	1.083321e-02	-1.083321e-02
0.385         	1.441840e-01	2.240687e-02	1.217771e-01	6.624684e-01	6.045340e-02	6.020150e-01	-2.707808e-01	-4.968513e-02	1.081380e-02	5.991092e-21	1.081380e-02	-1.081380e-02
0.39          	1.438300e-01	2.207840e-02	1.217516e-01	6.644883e-01	6.031988e-02	6.041684e-01	-2.719243e-01	-4.983662e-02	1.078725e-02	6.042733e-21	1.078725e-02	-1.078725e-02
0.395         	1.434043e-01	2.174365e-02	1.216606e-01	6.661131e-01	6.023827e-02	6.058748e-01	-2.728183e-01	-4.995848e-02	1.075532e-02	6.093404e-21	1.075532e-02	-1.075532e-02
0.4           	1.429299e-01	2.140646e-02	1.215234e-01	6.674464e-01	6.018889e-02	6.072575e-01	-2.735343e-01	-5.005848e-02	1.071974e-02	6.142892e-21	1.071974e-02	-1.071974e-02
0.405         	1.424213e-01	2.106812e-02	1.213532e-01	6.685669e-01	6.015917e-02	6.084078e-01	-2.741243e-01	-5.014252e-02	1.068160e-02	6.190968e-21	1.068160e-02	-1.068160e-02
0.41          	1.419069e-01	2.073227e-02	1.211747e-01	6.696160e-01	6.011412e-02	6.095018e-01	-2.746939e-01	-5.022120e-02	1.064302e-02	6.237715e-21	1.064302e-02	-1.064302e-02
0.415         	1.413927e-01	2.039933e-02	1.209934e-01	6.706268e-01	6.005814e-02	6.105687e-01	-2.752553e-01	-5.029701e-02	1.060445e-02	6.283174e-21	1.060445e-02	-1.060445e-02
0.42          	1.409040e-01	2.007281e-02	1.208312e-01	6.717226e-01	5.995975e-02	6.117628e-01	-2.759015e-01	-5.037919e-02	1.056780e-02	6.327091e-21	1.056780e-02	-1.056780e-02
0.425         	1.404368e-01	1.975171e-02	1.206851e-01	6.728892e-01	5.983708e-02	6.130521e-01	-2.766075e-01	-5.046669e-02	1.053276e-02	6.370157e-21	1.053276e-02	-1.053276e-02
0.43          	1.399947e-01	1.943549e-02	1.205592e-01	6.741580e-01	5.968551e-02	6.144725e-01	-2.773935e-01	-5.056185e-02	1.049960e-02	6.413089e-21	1.049960e-02	-1.049960e-02
0.435         	1.395590e-01	1.912157e-02	1.204374e-01	6.754392e-01	5.953646e-02	6.159027e-01	-2.781831e-01	-5.065794e-02	1.046693e-02	6.456475e-21	1.046693e-02	-1.046693e-02
0.44          	1.391248e-01	1.880793e-02	1.203169e-01	6.767262e-01	5.938757e-02	6.173387e-01	-2.789756e-01	-5.075447e-02	1.043436e-02	6.500628e-21	1.043436e-02	-1.043436e-02
0.445         	1.386474e-01	1.848602e-02	1.201614e-01	6.778356e-01	5.931002e-02	6.185256e-01	-2.796078e-01	-5.083767e-02	1.039855e-02	6.545472e-21	1.039855e-02	-1.039855e-02
0.45          	1.381170e-01	1.815389e-02	1.199631e-01	6.787279e-01	5.930621e-02	6.194217e-01	-2.800578e-01	-5.090460e-02	1.035877e-02	6.590892e-21	1.035877e-02	-1.035877e-02
0.455         	1.375296e-01	1.781034e-02	1.197192e-01	6.793925e-01	5.937796e-02	6.200145e-01	-2.803183e-01	-5.095443e-02	1.031472e-02	6.636788e-21	1.031472e-02	-1.031472e-02
0.46          	1.368750e-01	1.745344e-02	1.194216e-01	6.797874e-01	5.953261e-02	6.202548e-01	-2.803611e-01	-5.098406e-02	1.026562e-02	6.682901e-21	1.026562e-02	-1.026562e-02
0.465         	1.361469e-01	1.708274e-02	1.190641e-01	6.798759e-01	5.977771e-02	6.200982e-01	-2.801603e-01	-5.099069e-02	1.021102e-02	6.728943e-21	1.021102e-02	-1.021102e-02
0.47          	1.353502e-01	1.669975e-02	1.186505e-01	6.796717e-01	6.011028e-02	6.195614e-01	-2.797256e-01	-5.097538e-02	1.015127e-02	6.774785e-21	1.015127e-02	-1.015127e-02
0.475         	1.345115e-01	1.630837e-02	1.182031e-01	6.792984e-01	6.049302e-02	6.188054e-01	-2.791562e-01	-5.094738e-02	1.008836e-02	6.820194e-21	1.008836e-02	-1.008836e-02
0.48          	1.336389e-01	1.591033e-02	1.177286e-01	6.787883e-01	6.092351e-02	6.178648e-01	-2.784707e-01	-5.090912e-02	1.002292e-02	6.864903e-21	1.002292e-02	-1.002292e-02
0.485         	1.327551e-01	1.551012e-02	1.172450e-01	6.782325e-01	6.137968e-02	6.168529e-01	-2.777366e-01	-5.086744e-02	9.956634e-03	6.909072e-21	9.956634e-03	-9.956634e-03
0.49          	1.318981e-01	1.511446e-02	1.167837e-01	6.777948e-01	6.181763e-02	6.159772e-01	-2.770798e-01	-5.083461e-02	9.892360e-03	6.952565e-21	9.892360e-03	-9.892360e-03
0.495         	1.311013e-01	1.472806e-02	1.163732e-01	6.776345e-01	6.219630e-02	6.154381e-01	-2.766209e-01	-5.082258e-02	9.832597e-03	6.995391e-21	9.832597e-03	-9.832597e-03
0.5           	1.303769e-01	1.435437e-02	1.160225e-01	6.777878e-01	6.251505e-02	6.152728e-01	-2.763789e-01	-5.083409e-02	9.778269e-03	7.037378e-21	9.778269e-03	-9.778269e-03
0.505         	1.297370e-01	1.399525e-02	1.157417e-01	6.783097e-01	6.276808e-02	6.155416e-01	-2.763868e-01	-5.087323e-02	9.730272e-03	7.078621e-21	9.730272e-03	-9.730272e-03
0.51          	1.291920e-01	1.365277e-02	1.155392e-01	6.792430e-01	6.294819e-02	6.162948e-01	-2.766733e-01	-5.094323e-02	9.689399e-03	7.119054e-21	9.689399e-03	-9.689399e-03
0.515         	1.287429e-01	1.332591e-02	1.154170e-01	6.806070e-01	6.305279e-02	6.175542e-01	-2.772507e-01	-5.104552e-02	9.655716e-03	7.159012e-21	9.655716e-03	-9.655716e-03
0.52          	1.283872e-01	1.301448e-02	1.153728e-01	6.823885e-01	6.308858e-02	6.192999e-01	-2.781057e-01	-5.117914e-02	9.629042e-03	7.198366e-21	9.629042e-03	-9.629042e-03
0.525         	1.281157e-01	1.271598e-02	1.153997e-01	6.845582e-01	6.306522e-02	6.214930e-01	-2.792139e-01	-5.134187e-02	9.608677e-03	7.237332e-21	9.608677e-03	-9.608677e-03
0.53          	1.279071e-01	1.242701e-02	1.154800e-01	6.870202e-01	6.300729e-02	6.240129e-01	-2.805028e-01	-5.152652e-02	9.593029e-03	7.276686e-21	9.593029e-03	-9.593029e-03
0.535         	1.277443e-01	1.214360e-02	1.156007e-01	6.897141e-01	6.293201e-02	6.267821e-01	-2.819251e-01	-5.172856e-02	9.580824e-03	7.315598e-21	9.580824e-03	-9.580824e-03
0.54          	1.276088e-01	1.186255e-02	1.157462e-01	6.925579e-01	6.285827e-02	6.296996e-01	-2.834207e-01	-5.194184e-02	9.570659e-03	7.354746e-21	9.570659e-03	-9.570659e-03
0.545         	1.274816e-01	1.158055e-02	1.159011e-01	6.954700e-01	6.280749e-02	6.326625e-01	-2.849275e-01	-5.216025e-02	9.561120e-03	7.393876e-21	9.561120e-03	-9.561120e-03
0.55          	1.273510e-01	1.129496e-02	1.160560e-01	6.984072e-01	6.278807e-02	6.356191e-01	-2.864155e-01	-5.238054e-02	9.551325e-03	7.432676e-21	9.551325e-03	-9.551325e-03
0.555         	1.272179e-01	1.100574e-02	1.162122e-01	7.013764e-01	6.279207e-02	6.385844e-01	-2.878961e-01	-5.260323e-02	9.541346e-03	7.471813e-21	9.541346e-03	-9.541346e-03
0.56          	1.270805e-01	1.071258e-02	1.163679e-01	7.043691e-01	6.282207e-02	6.415470e-01	-2.893625e-01	-5.282768e-02	9.531040e-03	7.511073e-21	9.531040e-03	-9.531040e-03
0.565         	1.269394e-01	1.041457e-02	1.165249e-01	7.074019e-01	6.287638e-02	6.445255e-01	-2.908245e-01	-5.305514e-02	9.520457e-03	7.550311e-21	9.520457e-03	-9.520457e-03
0.57          	1.268034e-01	1.011341e-02	1.166900e-01	7.105104e-01	6.294483e-02	6.475656e-01	-2.923104e-01	-5.328828e-02	9.510254e-03	7.589732e-21	9.510254e-03	-9.510254e-03
0.575         	1.266826e-01	9.810573e-03	1.168720e-01	7.137428e-01	6.301295e-02	6.507299e-01	-2.938584e-01	-5.353071e-02	9.501193e-03	7.629563e-21	9.501193e-03	-9.501193e-03
0.58          	1.265837e-01	9.507460e-03	1.170762e-01	7.171252e-01	6.307544e-02	6.540497e-01	-2.954871e-01	-5.378439e-02	9.493777e-03	7.669593e-21	9.493777e-03	-9.493777e-03
0.585         	1.265162e-01	9.205984e-03	1.173102e-01	7.206948e-01	6.312330e-02	6.575715e-01	-2.972241e-01	-5.405211e-02	9.488714e-03	7.710008e-21	9.488714e-03	-9.488714e-03
0.59          	1.264801e-01	8.905790e-03	1.175743e-01	7.244568e-01	6.315832e-02	6.612985e-01	-2.990701e-01	-5.433426e-02	9.486008e-03	7.751864e-21	9.486008e-03	-9.486008e-03
0.595         	1.264757e-01	8.606657e-03	1.178691e-01	7.284162e-01	6.318034e-02	6.652359e-01	-3.010278e-01	-5.463122e-02	9.485681e-03	7.794598e-21	9.485681e-03	-9.485681e-03
0.6           	1.264985e-01	8.307496e-03	1.181910e-01	7.325565e-01	6.319382e-02	6.693627e-01	-3.030844e-01	-5.494174e-02	9.487385e-03	7.839278e-21	9.487385e-03	-9.487385e-03
0.605         	1.265340e-01	8.004441e-03	1.185295e-01	7.368341e-01	6.321584e-02	6.736182e-01	-3.052012e-01	-5.526255e-02	9.490049e-03	7.882477e-21	9.490049e-03	-9.490049e-03
0.61          	1.265809e-01	7.698387e-03	1.188825e-01	7.412275e-01	6.324689e-02	6.779806e-01	-3.073669e-01	-5.559206e-02	9.493567e-03	7.925754e-21	9.493567e-03	-9.493567e-03
0.615         	1.266287e-01	7.387333e-03	1.192414e-01	7.456935e-01	6.329889e-02	6.823946e-01	-3.095479e-01	-5.592701e-02	9.497152e-03	7.969637e-21	9.497152e-03	-9.497152e-03
0.62          	1.266652e-01	7.068757e-03	1.195965e-01	7.501847e-01	6.338318e-02	6.868016e-01	-3.117092e-01	-5.626386e-02	9.499892e-03	8.014168e-21	9.499892e-03	-9.499892e-03
0.625         	1.266887e-01	6.742949e-03	1.199458e-01	7.546856e-01	6.349933e-02	6.911863e-01	-3.138435e-01	-5.660142e-02	9.501656e-03	8.059315e-21	9.501656e-03	-9.501656e-03
0.63          	1.266977e-01	6.409907e-03	1.202878e-01	7.591859e-01	6.364823e-02	6.955377e-01	-3.159447e-01	-5.693894e-02	9.502327e-03	8.105254e-21	9.502327e-03	-9.502327e-03
0.635         	1.266998e-01	6.072128e-03	1.206276e-01	7.637034e-01	6.381871e-02	6.998847e-01	-3.180330e-01	-5.727776e-02	9.502483e-03	8.152152e-21	9.502483e-03	-9.502483e-03
0.64          	1.266959e-01	5.729333e-03	1.209666e-01	7.682484e-01	6.400730e-02	7.042411e-01	-3.201169e-01	-5.761863e-02	9.502194e-03	8.199146e-21	9.502194e-03	-9.502194e-03
0.645         	1.266982e-01	5.384705e-03	1.213135e-01	7.728587e-01	6.419819e-02	7.086605e-01	-3.222312e-01	-5.796441e-02	9.502367e-03	8.246803e-21	9.502367e-03	-9.502367e-03
0.65          	1.267129e-01	5.039448e-03	1.216735e-01	7.775602e-01	6.438344e-02	7.131768e-01	-3.243967e-01	-5.831702e-02	9.503470e-03	8.295022e-21	9.503470e-03	-9.503470e-03
0.655         	1.267505e-01	4.696427e-03	1.220541e-01	7.823844e-01	6.455091e-02	7.178335e-01	-3.266413e-01	-5.867883e-02	9.506289e-03	8.343010e-21	9.506289e-03	-9.506289e-03
0.66          	1.268233e-01	4.359108e-03	1.224642e-01	7.873673e-01	6.468486e-02	7.226824e-01	-3.289988e-01	-5.905255e-02	9.511748e-03	8.392212e-21	9.511748e-03	-9.511748e-03
0.665         	1.269258e-01	4.025415e-03	1.229004e-01	7.925000e-01	6.479194e-02	7.277081e-01	-3.314581e-01	-5.943750e-02	9.519438e-03	8.442229e-21	9.519438e-03	-9.519438e-03
0.67          	1.270591e-01	3.695579e-03	1.233635e-01	7.977863e-01	6.487089e-02	7.329154e-01	-3.340223e-01	-5.983398e-02	9.529433e-03	8.492150e-21	9.529433e-03	-9.529433e-03
0.675         	1.272202e-01	3.369129e-03	1.238511e-01	8.032132e-01	6.492573e-02	7.382875e-01	-3.366809e-01	-6.024099e-02	9.541518e-03	8.543355e-21	9.541518e-03	-9.541518e-03
0.68          	1.274021e-01	3.043824e-03	1.243583e-01	8.087631e-01	6.496434e-02	7.437987e-01	-3.394172e-01	-6.065723e-02	9.555158e-03	8.595289e-21	9.555158e-03	-9.555158e-03
0.685         	1.275978e-01	2.718149e-03	1.248796e-01	8.144098e-01	6.499314e-02	7.494166e-01	-3.422118e-01	-6.108073e-02	9.569832e-03	8.648066e-21	9.569832e-03	-9.569832e-03
0.69          	1.277937e-01	2.388641e-03	1.254051e-01	8.201095e-01	6.502711e-02	7.550823e-01	-3.450276e-01	-6.150821e-02	9.584528e-03	8.701546e-21	9.584528e-03	-9.584528e-03
0.695         	1.279919e-01	2.056413e-03	1.259355e-01	8.258604e-01	6.506323e-02	7.607972e-01	-3.478670e-01	-6.193953e-02	9.599392e-03	8.756212e-21	9.599392e-03	-9.599392e-03
0.7           	1.281902e-01	1.721202e-03	1.264690e-01	8.316518e-01	6.510274e-02	7.665491e-01	-3.507232e-01	-6.237389e-02	9.614263e-03	8.811688e-21	9.614263e-03	-9.614263e-03
0.705         	1.283836e-01	1.381730e-03	1.270019e-01	8.374676e-01	6.515030e-02	7.723173e-01	-3.535835e-01	-6.281007e-02	9.628770e-03	8.867837e-21	9.628770e-03	-9.628770e-03
0.71          	1.285671e-01	1.036759e-03	1.275303e-01	8.432905e-01	6.520908e-02	7.780815e-01	-3.564362e-01	-6.324679e-02	9.642533e-03	8.924377e-21	9.642533e-03	-9.642533e-03
0.715         	1.287469e-01	6.883350e-04	1.280586e-01	8.491349e-01	6.527133e-02	7.838636e-01	-3.592961e-01	-6.368512e-02	9.656018e-03	8.981947e-21	9.656018e-03	-9.656018e-03
0.72          	1.289166e-01	3.343493e-04	1.285822e-01	8.549858e-01	6.534472e-02	7.896411e-01	-3.621482e-01	-6.412393e-02	9.668742e-03	9.040448e-21	9.668742e-03	-9.668742e-03
0.725         	1.290785e-01	-2.432074e-05	1.291028e-01	8.608477e-01	6.542585e-02	7.954219e-01	-3.649980e-01	-6.456358e-02	9.680889e-03	9.099611e-21	9.680889e-03	-9.680889e-03
0.73          	1.292309e-01	-3.879621e-04	1.296188e-01	8.667120e-01	6.551580e-02	8.011962e-01	-3.678402e-01	-6.500340e-02	9.692316e-03	9.159337e-21	9.692316e-03	-9.692316e-03
0.735         	1.293689e-01	-7.578182e-04	1.301267e-01	8.725636e-01	6.562080e-02	8.069428e-01	-3.706610e-01	-6.544227e-02	9.702668e-03	9.219860e-21	9.702668e-03	-9.702668e-03
0.74          	1.294939e-01	-1.133257e-03	1.306272e-01	8.784030e-01	6.573794e-02	8.126651e-01	-3.734636e-01	-6.588023e-02	9.712045e-03	9.280855e-21	9.712045e-03	-9.712045e-03
0.745         	1.296036e-01	-1.514767e-03	1.311183e-01	8.842208e-01	6.587045e-02	8.183503e-01	-3.762399e-01	-6.631656e-02	9.720269e-03	9.342749e-21	9.720269e-03	-9.720269e-03
0.75          	1.296989e-01	-1.901430e-03	1.316004e-01	8.900119e-01	6.601701e-02	8.239949e-01	-3.789890e-01	-6.675090e-02	9.727420e-03	9.405597e-21	9.727420e-03	-9.727420e-03
0.755         	1.297763e-01	-2.294209e-03	1.320705e-01	8.957645e-01	6.618113e-02	8.295834e-01	-3.817011e-01	-6.718234e-02	9.733220e-03	9.469293e-21	9.733220e-03	-9.733220e-03
0.76          	1.298370e-01	-2.692109e-03	1.325291e-01	9.014746e-01	6.636064e-02	8.351139e-01	-3.843766e-01	-6.761059e-02	9.737773e-03	9.533727e-21	9.737773e-03	-9.737773e-03
0.765         	1.298752e-01	-3.097132e-03	1.329723e-01	9.071298e-01	6.656136e-02	8.405685e-01	-3.870036e-01	-6.803474e-02	9.740641e-03	9.598954e-21	9.740641e-03	-9.740641e-03
0.77          	1.298962e-01	-3.507462e-03	1.334036e-01	9.127406e-01	6.677726e-02	8.459634e-01	-3.895931e-01	-6.845555e-02	9.742213e-03	9.660696e-21	9.742213e-03	-9.742213e-03
0.775         	1.299003e-01	-3.922759e-03	1.338230e-01	9.183053e-01	6.700777e-02	8.512975e-01	-3.921449e-01	-6.887290e-02	9.742521e-03	9.722340e-21	9.742521e-03	-9.742521e-03
0.78          	1.298905e-01	-4.341981e-03	1.342324e-01	9.238294e-01	6.724925e-02	8.565802e-01	-3.946655e-01	-6.928721e-02	9.741784e-03	9.784516e-21	9.741784e-03	-9.741784e-03
0.785         	1.298666e-01	-4.765172e-03	1.346318e-01	9.293131e-01	6.750122e-02	8.618119e-01	-3.971554e-01	-6.969849e-02	9.739997e-03	9.847279e-21	9.739997e-03	-9.739997e-03
0.79          	1.298298e-01	-5.192086e-03	1.350219e-01	9.347600e-01	6.776286e-02	8.669972e-01	-3.996172e-01	-7.010700e-02	9.737237e-03	9.910221e-21	9.737237e-03	-9.737237e-03
0.795         	1.297802e-01	-5.622490e-03	1.354027e-01	9.401679e-01	6.803417e-02	8.721337e-01	-4.020498e-01	-7.051259e-02	9.733515e-03	9.973621e-21	9.733515e-03	-9.733515e-03
0.8           	1.297206e-01	-6.055397e-03	1.357760e-01	9.455429e-01	6.831153e-02	8.772314e-01	-4.044599e-01	-7.091572e-02	9.729048e-03	1.003737e-20	9.729048e-03	-9.729048e-03
0.805         	1.296547e-01	-6.489792e-03	1.361445e-01	9.508955e-01	6.859058e-02	8.823049e-01	-4.068572e-01	-7.131716e-02	9.724105e-03	1.010140e-20	9.724105e-03	-9.724105e-03
0.81          	1.295840e-01	-6.925217e-03	1.365092e-01	9.562295e-01	6.886988e-02	8.873596e-01	-4.092449e-01	-7.171721e-02	9.718800e-03	1.016568e-20	9.718800e-03	-9.718800e-03
0.815         	1.295108e-01	-7.360816e-03	1.368716e-01	9.615493e-01	6.914688e-02	8.924025e-01	-4.116278e-01	-7.211620e-02	9.713308e-03	1.023039e-20	9.713308e-03	-9.713308e-03
0.82          	1.294380e-01	-7.795633e-03	1.372337e-01	9.668619e-01	6.941849e-02	8.974434e-01	-4.140125e-01	-7.251465e-02	9.707852e-03	1.029545e-20	9.707852e-03	-9.707852e-03
0.825         	1.293682e-01	-8.228983e-03	1.375972e-01	9.721745e-01	6.968158e-02	9.024929e-01	-4.164057e-01	-7.291309e-02	9.702616e-03	1.036092e-20	9.702616e-03	-9.702616e-03
0.83          	1.293019e-01	-8.660893e-03	1.379628e-01	9.774914e-01	6.993596e-02	9.075555e-01	-4.188098e-01	-7.331186e-02	9.697645e-03	1.042660e-20	9.697645e-03	-9.697645e-03
0.835         	1.293032e-01	-9.031704e-03	1.383349e-01	9.824438e-01	7.001216e-02	9.124316e-01	-4.212097e-01	-7.368328e-02	9.697737e-03	1.048943e-20	9.697737e-03	-9.697737e-03
0.84          	1.292494e-01	-9.448590e-03	1.386980e-01	9.876438e-01	7.021960e-02	9.174242e-01	-4.236023e-01	-7.407329e-02	9.693705e-03	1.055418e-20	9.693705e-03	-9.693705e-03