# Force and moment coefficients
# dragDir     : (9.993908e-01 3.489903e-02 0.000000e+00)
# sideDir     : (0.000000e+00 0.000000e+00 -1.000000e+00)
# liftDir     : (-3.489903e-02 9.993908e-01 0.000000e+00)
# rollAxis    : (9.993908e-01 3.489903e-02 0.000000e+00)
# pitchAxis   : (0.000000e+00 0.000000e+00 -1.000000e+00)
# yawAxis     : (-3.489903e-02 9.993908e-01 0.000000e+00)
# magUInf     : 3.660000e+01
# lRef        : 1.000000e+00
# Aref        : 1.500000e-01
# CofR        : (0.000000e+00 0.000000e+00 0.000000e+00)
#
# Time        	Cd            	Cd(f)         	Cd(r)         	Cl            	Cl(f)         	Cl(r)         	CmPitch       	CmRoll        	CmYaw         	Cs            	Cs(f)         	Cs(r)         
0.005         	1.270243e+00	5.601926e-01	7.100508e-01	9.990543e-01	-2.881452e-01	1.287200e+00	-7.876724e-01	-7.492907e-02	9.526826e-02	-1.373100e-19	9.526826e-02	-9.526826e-02
0.01          	1.759449e-01	7.796727e-02	9.797766e-02	1.334026e-01	-1.066264e-05	1.334133e-01	-6.671196e-02	-1.000519e-02	1.319587e-02	-8.014286e-21	1.319587e-02	-1.319587e-02
0.015         	7.182788e-02	3.256783e-02	3.926005e-02	4.461477e-02	2.294060e-02	2.167416e-02	6.332190e-04	-3.346108e-03	5.387091e-03	-8.894576e-22	5.387091e-03	-5.387091e-03
0.02          	7.195063e-02	3.130569e-02	4.064494e-02	6.226161e-02	1.682234e-02	4.543927e-02	-1.430847e-02	-4.669621e-03	5.396297e-03	-4.187158e-22	5.396297e-03	-5.396297e-03
0.025         	8.775060e-02	3.644246e-02	5.130814e-02	9.910451e-02	6.854178e-03	9.225033e-02	-4.269808e-02	-7.432838e-03	6.581295e-03	-7.404329e-22	6.581295e-03	-6.581295e-03
0.03          	1.022963e-01	4.147581e-02	6.082047e-02	1.289645e-01	-1.268979e-04	1.290913e-01	-6.460912e-02	-9.672334e-03	7.672221e-03	-9.964561e-22	7.672221e-03	-7.672221e-03
0.035         	1.155943e-01	4.626308e-02	6.933119e-02	1.537874e-01	-5.185685e-03	1.589730e-01	-8.207937e-02	-1.153405e-02	8.669570e-03	-1.177584e-21	8.669570e-03	-8.669570e-03
0.04          	1.251325e-01	4.990174e-02	7.523080e-02	1.688604e-01	-7.626589e-03	1.764870e-01	-9.205679e-02	-1.266453e-02	9.384941e-03	-1.313528e-21	9.384941e-03	-9.384941e-03
0.045         	1.323470e-01	5.279200e-02	7.955503e-02	1.784202e-01	-8.624766e-03	1.870450e-01	-9.783487e-02	-1.338152e-02	9.926027e-03	-1.387934e-21	9.926027e-03	-9.926027e-03
0.05          	1.373939e-01	5.494548e-02	8.244842e-02	1.833529e-01	-8.137300e-03	1.914902e-01	-9.981377e-02	-1.375147e-02	1.030454e-02	-1.402011e-21	1.030454e-02	-1.030454e-02
0.055         	1.402057e-01	5.629333e-02	8.391235e-02	1.841268e-01	-6.221650e-03	1.903484e-01	-9.828503e-02	-1.380951e-02	1.051543e-02	-1.382784e-21	1.051543e-02	-1.051543e-02
0.06          	1.414815e-01	5.722449e-02	8.425698e-02	1.802166e-01	-3.468846e-03	1.836855e-01	-9.357715e-02	-1.351625e-02	1.061111e-02	-1.309945e-21	1.061111e-02	-1.061111e-02
0.065         	1.416824e-01	5.780228e-02	8.388008e-02	1.738520e-01	1.550573e-04	1.736969e-01	-8.677094e-02	-1.303890e-02	1.062618e-02	-1.193085e-21	1.062618e-02	-1.062618e-02
0.07          	1.408365e-01	5.814069e-02	8.269582e-02	1.637009e-01	3.942675e-03	1.597582e-01	-7.790778e-02	-1.227757e-02	1.056274e-02	-1.096521e-21	1.056274e-02	-1.056274e-02
0.075         	1.390732e-01	5.818889e-02	8.088431e-02	1.513028e-01	7.739645e-03	1.435632e-01	-6.791176e-02	-1.134771e-02	1.043049e-02	-1.033184e-21	1.043049e-02	-1.043049e-02
0.08          	1.366007e-01	5.789850e-02	7.870219e-02	1.386913e-01	1.162049e-02	1.270708e-01	-5.772516e-02	-1.040185e-02	1.024505e-02	-9.909387e-22	1.024505e-02	-1.024505e-02
0.085         	1.338789e-01	5.745508e-02	7.642383e-02	1.264583e-01	1.543428e-02	1.110241e-01	-4.779489e-02	-9.484376e-03	1.004092e-02	-9.429911e-22	1.004092e-02	-1.004092e-02
0.09          	1.311592e-01	5.693632e-02	7.422291e-02	1.152440e-01	1.906531e-02	9.617866e-02	-3.855668e-02	-8.643297e-03	9.836943e-03	-8.804405e-22	9.836943e-03	-9.836943e-03
0.095         	1.285473e-01	5.641639e-02	7.213090e-02	1.047634e-01	2.230214e-02	8.246124e-02	-3.007955e-02	-7.857253e-03	9.641047e-03	-7.926578e-22	9.641047e-03	-9.641047e-03
0.1           	1.260986e-01	5.591468e-02	7.018393e-02	9.512837e-02	2.493351e-02	7.019485e-02	-2.263067e-02	-7.134627e-03	9.457396e-03	-7.059718e-22	9.457396e-03	-9.457396e-03
0.105         	1.238492e-01	5.539791e-02	6.845131e-02	8.702264e-02	2.690291e-02	6.011974e-02	-1.660841e-02	-6.526698e-03	9.288691e-03	-6.440011e-22	9.288691e-03	-9.288691e-03
0.11          	1.218791e-01	5.486441e-02	6.701473e-02	8.100216e-02	2.819316e-02	5.280900e-02	-1.230792e-02	-6.075162e-03	9.140936e-03	-5.926218e-22	9.140936e-03	-9.140936e-03
0.115         	1.202532e-01	5.430116e-02	6.595201e-02	7.767232e-02	2.883796e-02	4.883436e-02	-9.998197e-03	-5.825424e-03	9.018988e-03	-5.385669e-22	9.018988e-03	-9.018988e-03
0.12          	1.189911e-01	5.368648e-02	6.530462e-02	7.745428e-02	2.883691e-02	4.861736e-02	-9.890225e-03	-5.809071e-03	8.924332e-03	-4.779341e-22	8.924332e-03	-8.924332e-03
0.125         	1.180736e-01	5.301278e-02	6.506080e-02	8.032014e-02	2.818259e-02	5.213755e-02	-1.197748e-02	-6.024011e-03	8.855519e-03	-4.081043e-22	8.855519e-03	-8.855519e-03
0.13          	1.174656e-01	5.227028e-02	6.519534e-02	8.616703e-02	2.691149e-02	5.925555e-02	-1.617203e-02	-6.462528e-03	8.809922e-03	-3.346536e-22	8.809922e-03	-8.809922e-03
0.135         	1.171065e-01	5.145481e-02	6.565169e-02	9.464586e-02	2.509161e-02	6.955425e-02	-2.223132e-02	-7.098439e-03	8.782987e-03	-2.631116e-22	8.782987e-03	-8.782987e-03
0.14          	1.169300e-01	5.057638e-02	6.635362e-02	1.051816e-01	2.288140e-02	8.230021e-02	-2.970941e-02	-7.888621e-03	8.769751e-03	-1.940154e-22	8.769751e-03	-8.769751e-03
0.145         	1.168331e-01	4.962569e-02	6.720740e-02	1.172114e-01	2.048337e-02	9.672799e-02	-3.812231e-02	-8.790853e-03	8.762481e-03	-1.233199e-22	8.762481e-03	-8.762481e-03
0.15          	1.167921e-01	4.862717e-02	6.816492e-02	1.302516e-01	1.796896e-02	1.122827e-01	-4.715685e-02	-9.768872e-03	8.759407e-03	-5.331632e-23	8.759407e-03	-8.759407e-03
0.155         	1.167376e-01	4.759977e-02	6.913781e-02	1.435869e-01	1.553475e-02	1.280522e-01	-5.625872e-02	-1.076902e-02	8.755319e-03	1.698109e-23	8.755319e-03	-8.755319e-03
0.16          	1.166155e-01	4.656465e-02	7.005088e-02	1.565749e-01	1.330978e-02	1.432651e-01	-6.497765e-02	-1.174312e-02	8.746164e-03	8.753158e-23	8.746164e-03	-8.746164e-03
0.165         	1.163779e-01	4.553513e-02	7.084281e-02	1.687178e-01	1.139290e-02	1.573249e-01	-7.296601e-02	-1.265384e-02	8.728346e-03	1.598401e-22	8.728346e-03	-8.728346e-03
0.17          	1.159636e-01	4.453218e-02	7.143146e-02	1.793285e-01	9.888665e-03	1.694399e-01	-7.977560e-02	-1.344964e-02	8.697273e-03	2.324829e-22	8.697273e-03	-8.697273e-03
0.175         	1.153430e-01	4.356069e-02	7.178234e-02	1.881444e-01	8.867701e-03	1.792767e-01	-8.520448e-02	-1.411083e-02	8.650728e-03	3.059871e-22	8.650728e-03	-8.650728e-03
0.18          	1.144978e-01	4.262753e-02	7.187029e-02	1.949517e-01	8.356388e-03	1.865954e-01	-8.911949e-02	-1.462138e-02	8.587337e-03	3.803834e-22	8.587337e-03	-8.587337e-03
0.185         	1.134205e-01	4.173696e-02	7.168355e-02	1.996439e-01	8.363740e-03	1.912801e-01	-9.145820e-02	-1.497329e-02	8.506538e-03	4.552409e-22	8.506538e-03	-8.506538e-03
0.19          	1.121291e-01	4.089247e-02	7.123665e-02	2.022945e-01	8.854280e-03	1.934402e-01	-9.229297e-02	-1.517209e-02	8.409684e-03	5.300186e-22	8.409684e-03	-8.409684e-03
0.195         	1.106657e-01	4.009886e-02	7.056682e-02	2.031198e-01	9.737672e-03	1.933821e-01	-9.182221e-02	-1.523398e-02	8.299926e-03	6.040131e-22	8.299926e-03	-8.299926e-03
0.2           	1.090789e-01	3.935195e-02	6.972692e-02	2.024998e-01	1.090618e-02	1.915936e-01	-9.034373e-02	-1.518749e-02	8.180916e-03	6.768711e-22	8.180916e-03	-8.180916e-03
0.205         	1.074301e-01	3.865082e-02	6.877926e-02	2.008563e-01	1.224206e-02	1.886142e-01	-8.818606e-02	-1.506422e-02	8.057256e-03	7.478620e-22	8.057256e-03	-8.057256e-03
0.21          	1.057877e-01	3.799127e-02	6.779646e-02	1.987013e-01	1.361255e-02	1.850887e-01	-8.573808e-02	-1.490259e-02	7.934080e-03	8.169861e-22	7.934080e-03	-7.934080e-03
0.215         	1.041908e-01	3.736404e-02	6.682680e-02	1.964184e-01	1.492832e-02	1.814901e-01	-8.328089e-02	-1.473138e-02	7.814313e-03	8.837490e-22	7.814313e-03	-7.814313e-03
0.22          	1.026946e-01	3.676210e-02	6.593249e-02	1.944693e-01	1.607641e-02	1.783929e-01	-8.115824e-02	-1.458520e-02	7.702094e-03	9.483598e-22	7.702094e-03	-7.702094e-03
0.225         	1.013201e-01	3.617813e-02	6.514194e-02	1.930921e-01	1.702895e-02	1.760631e-01	-7.951709e-02	-1.448191e-02	7.599006e-03	1.010663e-21	7.599006e-03	-7.599006e-03
0.23          	1.000923e-01	3.560848e-02	6.448385e-02	1.925025e-01	1.773608e-02	1.747664e-01	-7.851516e-02	-1.443769e-02	7.506925e-03	1.070835e-21	7.506925e-03	-7.506925e-03
0.235         	9.900211e-02	3.504700e-02	6.395511e-02	1.927207e-01	1.821407e-02	1.745066e-01	-7.814629e-02	-1.445405e-02	7.425159e-03	1.129053e-21	7.425159e-03	-7.425159e-03
0.24          	9.805003e-02	3.449159e-02	6.355844e-02	1.937790e-01	1.846366e-02	1.753153e-01	-7.842584e-02	-1.453342e-02	7.353752e-03	1.185559e-21	7.353752e-03	-7.353752e-03
0.245         	9.720946e-02	3.393984e-02	6.326962e-02	1.955319e-01	1.854454e-02	1.769873e-01	-7.922139e-02	-1.466489e-02	7.290709e-03	1.240614e-21	7.290709e-03	-7.290709e-03
0.25          	9.645991e-02	3.339167e-02	6.306824e-02	1.978438e-01	1.849159e-02	1.793522e-01	-8.043032e-02	-1.483829e-02	7.234493e-03	1.294363e-21	7.234493e-03	-7.234493e-03
0.255         	9.576757e-02	3.284679e-02	6.292077e-02	2.004932e-01	1.836733e-02	1.821259e-01	-8.187927e-02	-1.503699e-02	7.182568e-03	1.347302e-21	7.182568e-03	-7.182568e-03
0.26          	9.511275e-02	3.230986e-02	6.280290e-02	2.032869e-01	1.821689e-02	1.850701e-01	-8.342658e-02	-1.524652e-02	7.133456e-03	1.399416e-21	7.133456e-03	-7.133456e-03
0.265         	9.447392e-02	3.178306e-02	6.269086e-02	2.060520e-01	1.808225e-02	1.879697e-01	-8.494374e-02	-1.545390e-02	7.085544e-03	1.450801e-21	7.085544e-03	-7.085544e-03
0.27          	9.383879e-02	3.126994e-02	6.256885e-02	2.086594e-01	1.798940e-02	1.906700e-01	-8.634028e-02	-1.564945e-02	7.037909e-03	1.501535e-21	7.037909e-03	-7.037909e-03
0.275         	9.319655e-02	3.077289e-02	6.242366e-02	2.110052e-01	1.795971e-02	1.930454e-01	-8.754287e-02	-1.582539e-02	6.989742e-03	1.551417e-21	6.989742e-03	-6.989742e-03
0.28          	9.253639e-02	3.029248e-02	6.224391e-02	2.130096e-01	1.800748e-02	1.950021e-01	-8.849731e-02	-1.597572e-02	6.940229e-03	1.600647e-21	6.940229e-03	-6.940229e-03
0.285         	9.186589e-02	2.983108e-02	6.203481e-02	2.146915e-01	1.811780e-02	1.965737e-01	-8.922797e-02	-1.610187e-02	6.889942e-03	1.649036e-21	6.889942e-03	-6.889942e-03
0.29          	9.118756e-02	2.938672e-02	6.180084e-02	2.160941e-01	1.828365e-02	1.978105e-01	-8.976340e-02	-1.620706e-02	6.839067e-03	1.696539e-21	6.839067e-03	-6.839067e-03
0.295         	9.051584e-02	2.896097e-02	6.155487e-02	2.172926e-01	1.847387e-02	1.988188e-01	-9.017244e-02	-1.629695e-02	6.788688e-03	1.743003e-21	6.788688e-03	-6.788688e-03
0.3           	8.985249e-02	2.855062e-02	6.130187e-02	2.183417e-01	1.868161e-02	1.996601e-01	-9.048924e-02	-1.637563e-02	6.738936e-03	1.788483e-21	6.738936e-03	-6.738936e-03
0.305         	8.921134e-02	2.815602e-02	6.105531e-02	2.193286e-01	1.888065e-02	2.004480e-01	-9.078366e-02	-1.644965e-02	6.690850e-03	1.832864e-21	6.690850e-03	-6.690850e-03
0.31          	8.860458e-02	2.777533e-02	6.082925e-02	2.203595e-01	1.904305e-02	2.013164e-01	-9.113669e-02	-1.652696e-02	6.645344e-03	1.875969e-21	6.645344e-03	-6.645344e-03
0.315         	8.803141e-02	2.740612e-02	6.062529e-02	2.214612e-01	1.916713e-02	2.022940e-01	-9.156345e-02	-1.660959e-02	6.602356e-03	1.917806e-21	6.602356e-03	-6.602356e-03
0.32          	8.749847e-02	2.704660e-02	6.045188e-02	2.227019e-01	1.924156e-02	2.034603e-01	-9.210937e-02	-1.670264e-02	6.562385e-03	1.958482e-21	6.562385e-03	-6.562385e-03
0.325         	8.700358e-02	2.669558e-02	6.030801e-02	2.240829e-01	1.927056e-02	2.048123e-01	-9.277087e-02	-1.680622e-02	6.525269e-03	1.997985e-21	6.525269e-03	-6.525269e-03
0.33          	8.654560e-02	2.635291e-02	6.019269e-02	2.255986e-01	1.925448e-02	2.063441e-01	-9.354479e-02	-1.691989e-02	6.490920e-03	2.036247e-21	6.490920e-03	-6.490920e-03
0.335         	8.611512e-02	2.601740e-02	6.009771e-02	2.272021e-01	1.921163e-02	2.079904e-01	-9.438940e-02	-1.704015e-02	6.458634e-03	2.073397e-21	6.458634e-03	-6.458634e-03
0.34          	8.571125e-02	2.568913e-02	6.002212e-02	2.288866e-01	1.914113e-02	2.097455e-01	-9.530218e-02	-1.716650e-02	6.428344e-03	2.109481e-21	6.428344e-03	-6.428344e-03
0.345         	8.532496e-02	2.536723e-02	5.995773e-02	2.306034e-01	1.905939e-02	2.115440e-01	-9.624229e-02	-1.729525e-02	6.399372e-03	2.144602e-21	6.399372e-03	-6.399372e-03
0.35          	8.495307e-02	2.505147e-02	5.990160e-02	2.323342e-01	1.897200e-02	2.133622e-01	-9.719512e-02	-1.742507e-02	6.371480e-03	2.179070e-21	6.371480e-03	-6.371480e-03
0.355         	8.459209e-02	2.474246e-02	5.984963e-02	2.340478e-01	1.888646e-02	2.151613e-01	-9.813743e-02	-1.755358e-02	6.344407e-03	2.213737e-21	6.344407e-03	-6.344407e-03
0.36          	8.423711e-02	2.444005e-02	5.979706e-02	2.357134e-01	1.881262e-02	2.169008e-01	-9.904407e-02	-1.767850e-02	6.317783e-03	2.247747e-21	6.317783e-03	-6.317783e-03
0.365         	8.389132e-02	2.414414e-02	5.974718e-02	2.373536e-01	1.874095e-02	2.186127e-01	-9.993586e-02	-1.780152e-02	6.291849e-03	2.281130e-21	6.291849e-03	-6.291849e-03
0.37          	8.355292e-02	2.385555e-02	5.969737e-02	2.389455e-01	1.867989e-02	2.202656e-01	-1.007928e-01	-1.792091e-02	6.266469e-03	2.313878e-21	6.266469e-03	-6.266469e-03
0.375         	8.322396e-02	2.357386e-02	5.965009e-02	2.405082e-01	1.861926e-02	2.218889e-01	-1.016348e-01	-1.803811e-02	6.241797e-03	2.346025e-21	6.241797e-03	-6.241797e-03
0.38          	8.290590e-02	2.329865e-02	5.960725e-02	2.420574e-01	1.855540e-02	2.235020e-01	-1.024733e-01	-1.815430e-02	6.217942e-03	2.377567e-21	6.217942e-03	-6.217942e-03
0.385         	8.260100e-02	2.302958e-02	5.957142e-02	2.436122e-01	1.848383e-02	2.251284e-01	-1.033223e-01	-1.827092e-02	6.195075e-03	2.408492e-21	6.195075e-03	-6.195075e-03
0.39          	8.231155e-02	2.276647e-02	5.954509e-02	2.451908e-01	1.840111e-02	2.267897e-01	-1.041943e-01	-1.838931e-02	6.173366e-03	2.438817e-21	6.173366e-03	-6.173366e-03
0.395         	8.203821e-02	2.250845e-02	5.952976e-02	2.468087e-01	1.830447e-02	2.285043e-01	-1.050999e-01	-1.851066e-02	6.152866e-03	2.468527e-21	6.152866e-03	-6.152866e-03
0.4           	8.178223e-02	2.225533e-02	5.952690e-02	2.484772e-01	1.819045e-02	2.302867e-01	-1.060481e-01	-1.863579e-02	6.133667e-03	2.497656e-21	6.133667e-03	-6.133667e-03
0.405         	8.154187e-02	2.200636e-02	5.953551e-02	2.501943e-01	1.806320e-02	2.321311e-01	-1.070340e-01	-1.876458e-02	6.115640e-03	2.526260e-21	6.115640e-03	-6.115640e-03
0.41          	8.131581e-02	2.176060e-02	5.955521e-02	2.519641e-01	1.791863e-02	2.340455e-01	-1.080634e-01	-1.889731e-02	6.098686e-03	2.554414e-21	6.098686e-03	-6.098686e-03
0.415         	8.110125e-02	2.151785e-02	5.958339e-02	2.537703e-01	1.776216e-02	2.360081e-01	-1.091230e-01	-1.903277e-02	6.082594e-03	2.582151e-21	6.082594e-03	-6.082594e-03
0.42          	8.089326e-02	2.127847e-02	5.961479e-02	2.555755e-01	1.760474e-02	2.379707e-01	-1.101830e-01	-1.916816e-02	6.066995e-03	2.609565e-21	6.066995e-03	-6.066995e-03
0.425         	8.069414e-02	2.104200e-02	5.965214e-02	2.574009e-01	1.743746e-02	2.399634e-01	-1.112630e-01	-1.930507e-02	6.052060e-03	2.636800e-21	6.052060e-03	-6.052060e-03
0.43          	8.049801e-02	2.080921e-02	5.968880e-02	2.591973e-01	1.727662e-02	2.419207e-01	-1.123220e-01	-1.943980e-02	6.037351e-03	2.663836e-21	6.037351e-03	-6.037351e-03
0.435         	8.030463e-02	2.057935e-02	5.972528e-02	2.609729e-01	1.711721e-02	2.438557e-01	-1.133692e-01	-1.957297e-02	6.022847e-03	2.690601e-21	6.022847e-03	-6.022847e-03
0.44          	8.011233e-02	2.035257e-02	5.975976e-02	2.627146e-01	1.696351e-02	2.457511e-01	-1.143938e-01	-1.970359e-02	6.008424e-03	2.717155e-21	6.008424e-03	-6.008424e-03
0.445         	7.991734e-02	2.012888e-02	5.978846e-02	2.643972e-01	1.682240e-02	2.475748e-01	-1.153762e-01	-1.982979e-02	5.993801e-03	2.743819e-21	5.993801e-03	-5.993801e-03
0.45          	7.972105e-02	1.990750e-02	5.981355e-02	2.660403e-01	1.668334e-02	2.493570e-01	-1.163368e-01	-1.995303e-02	5.979078e-03	2.771165e-21	5.979078e-03	-5.979078e-03
0.455         	7.952266e-02	1.968954e-02	5.983312e-02	2.676239e-01	1.655510e-02	2.510688e-01	-1.172568e-01	-2.007179e-02	5.964200e-03	2.798576e-21	5.964200e-03	-5.964200e-03
0.46          	7.932292e-02	1.947411e-02	5.984880e-02	2.691646e-01	1.642941e-02	2.527352e-01	-1.181529e-01	-2.018734e-02	5.949219e-03	2.825887e-21	5.949219e-03	-5.949219e-03
0.465         	7.912151e-02	1.926106e-02	5.986045e-02	2.706626e-01	1.630866e-02	2.543540e-01	-1.190226e-01	-2.029970e-02	5.934114e-03	2.853212e-21	5.934114e-03	-5.934114e-03
0.47          	7.891802e-02	1.904989e-02	5.986812e-02	2.721215e-01	1.619052e-02	2.559310e-01	-1.198702e-01	-2.040911e-02	5.918851e-03	2.880507e-21	5.918851e-03	-5.918851e-03
0.475         	7.871334e-02	1.883998e-02	5.987337e-02	2.735559e-01	1.607081e-02	2.574851e-01	-1.207071e-01	-2.051669e-02	5.903501e-03	2.907872e-21	5.903501e-03	-5.903501e-03
0.48          	7.850573e-02	1.863232e-02	5.987341e-02	2.749406e-01	1.595805e-02	2.589826e-01	-1.215123e-01	-2.062055e-02	5.887929e-03	2.935245e-21	5.887929e-03	-5.887929e-03
0.485         	7.829609e-02	1.842682e-02	5.986927e-02	2.762830e-01	1.584790e-02	2.604351e-01	-1.222936e-01	-2.072122e-02	5.872207e-03	2.962448e-21	5.872207e-03	-5.872207e-03
0.49          	7.808385e-02	1.822349e-02	5.986036e-02	2.775791e-01	1.574253e-02	2.618366e-01	-1.230470e-01	-2.081843e-02	5.856289e-03	2.988695e-21	5.856289e-03	-5.856289e-03
0.495         	7.786654e-02	1.802169e-02	5.984485e-02	2.788211e-01	1.564406e-02	2.631771e-01	-1.237665e-01	-2.091158e-02	5.839991e-03	3.012461e-21	5.839991e-03	-5.839991e-03
0.5           	7.764319e-02	1.782159e-02	5.982160e-02	2.800001e-01	1.555514e-02	2.644449e-01	-1.244449e-01	-2.100000e-02	5.823239e-03	3.035917e-21	5.823239e-03	-5.823239e-03
0.505         	7.741370e-02	1.762286e-02	5.979084e-02	2.811199e-01	1.547543e-02	2.656445e-01	-1.250845e-01	-2.108399e-02	5.806027e-03	3.059076e-21	5.806027e-03	-5.806027e-03
0.51          	7.717716e-02	1.742587e-02	5.975129e-02	2.821694e-01	1.540783e-02	2.667616e-01	-1.256769e-01	-2.116271e-02	5.788287e-03	3.082017e-21	5.788287e-03	-5.788287e-03
0.515         	7.693352e-02	1.723058e-02	5.970294e-02	2.831491e-01	1.535078e-02	2.677983e-01	-1.262237e-01	-2.123618e-02	5.770014e-03	3.104718e-21	5.770014e-03	-5.770014e-03
0.52          	7.668132e-02	1.703650e-02	5.964482e-02	2.840554e-01	1.530712e-02	2.687483e-01	-1.267206e-01	-2.130416e-02	5.751099e-03	3.126290e-21	5.751099e-03	-5.751099e-03
0.525         	7.642010e-02	1.684359e-02	5.957651e-02	2.848861e-01	1.527720e-02	2.696089e-01	-1.271659e-01	-2.136646e-02	5.731507e-03	3.145975e-21	5.731507e-03	-5.731507e-03
0.53          	7.614937e-02	1.665168e-02	5.949770e-02	2.856402e-01	1.526028e-02	2.703799e-01	-1.275598e-01	-2.142301e-02	5.711203e-03	3.165233e-21	5.711203e-03	-5.711203e-03
0.535         	7.586809e-02	1.646055e-02	5.940754e-02	2.863133e-01	1.525805e-02	2.710553e-01	-1.278986e-01	-2.147350e-02	5.690107e-03	3.184117e-21	5.690107e-03	-5.690107e-03
0.54          	7.557611e-02	1.626983e-02	5.930629e-02	2.869097e-01	1.527099e-02	2.716387e-01	-1.281839e-01	-2.151823e-02	5.668209e-03	3.202577e-21	5.668209e-03	-5.668209e-03
0.545         	7.527547e-02	1.608052e-02	5.919495e-02	2.874296e-01	1.529637e-02	2.721332e-01	-1.284184e-01	-2.155722e-02	5.645660e-03	3.220604e-21	5.645660e-03	-5.645660e-03
0.55          	7.496629e-02	1.589216e-02	5.907413e-02	2.878798e-01	1.533370e-02	2.725461e-01	-1.286062e-01	-2.159099e-02	5.622472e-03	3.238214e-21	5.622472e-03	-5.622472e-03
0.555         	7.464841e-02	1.570522e-02	5.894319e-02	2.882531e-01	1.538575e-02	2.728674e-01	-1.287408e-01	-2.161898e-02	5.598631e-03	3.255362e-21	5.598631e-03	-5.598631e-03
0.56          	7.432384e-02	1.551913e-02	5.880471e-02	2.885706e-01	1.544626e-02	2.731243e-01	-1.288390e-01	-2.164279e-02	5.574288e-03	3.273552e-21	5.574288e-03	-5.574288e-03
0.565         	7.399169e-02	1.533369e-02	5.865800e-02	2.888288e-01	1.551802e-02	2.733108e-01	-1.288964e-01	-2.166216e-02	5.549377e-03	3.292121e-21	5.549377e-03	-5.549377e-03
0.57          	7.365273e-02	1.514881e-02	5.850392e-02	2.890341e-01	1.559916e-02	2.734349e-01	-1.289179e-01	-2.167756e-02	5.523955e-03	3.310315e-21	5.523955e-03	-5.523955e-03
0.575         	7.330730e-02	1.496453e-02	5.834277e-02	2.891883e-01	1.569007e-02	2.734982e-01	-1.289041e-01	-2.168912e-02	5.498047e-03	3.328101e-21	5.498047e-03	-5.498047e-03
0.58          	7.295625e-02	1.478089e-02	5.817537e-02	2.892965e-01	1.578945e-02	2.735071e-01	-1.288588e-01	-2.169724e-02	5.471719e-03	3.345615e-21	5.471719e-03	-5.471719e-03
0.585         	7.259933e-02	1.459747e-02	5.800185e-02	2.893625e-01	1.589734e-02	2.734652e-01	-1.287839e-01	-2.170219e-02	5.444950e-03	3.362754e-21	5.444950e-03	-5.444950e-03
0.59          	7.223746e-02	1.441433e-02	5.782314e-02	2.893921e-01	1.601303e-02	2.733791e-01	-1.286830e-01	-2.170441e-02	5.417810e-03	3.379572e-21	5.417810e-03	-5.417810e-03
0.595         	7.187093e-02	1.423165e-02	5.763929e-02	2.893843e-01	1.613608e-02	2.732482e-01	-1.285560e-01	-2.170382e-02	5.390320e-03	3.396057e-21	5.390320e-03	-5.390320e-03
0.6           	7.150011e-02	1.404898e-02	5.745113e-02	2.893477e-01	1.626551e-02	2.730822e-01	-1.284083e-01	-2.170107e-02	5.362508e-03	3.412211e-21	5.362508e-03	-5.362508e-03
0.605         	7.112718e-02	1.386578e-02	5.726140e-02	2.893042e-01	1.639677e-02	2.729074e-01	-1.282553e-01	-2.169781e-02	5.334539e-03	3.428081e-21	5.334539e-03	-5.334539e-03
0.61          	7.075191e-02	1.368225e-02	5.706966e-02	2.892494e-01	1.653087e-02	2.727185e-01	-1.280938e-01	-2.169371e-02	5.306393e-03	3.443667e-21	5.306393e-03	-5.306393e-03
0.615         	7.037416e-02	1.349872e-02	5.687543e-02	2.891781e-01	1.667089e-02	2.725072e-01	-1.279182e-01	-2.168836e-02	5.278062e-03	3.459008e-21	5.278062e-03	-5.278062e-03
0.62          	6.999453e-02	1.331423e-02	5.668029e-02	2.891071e-01	1.681270e-02	2.722944e-01	-1.277408e-01	-2.168303e-02	5.249590e-03	3.474143e-21	5.249590e-03	-5.249590e-03
0.625         	6.961406e-02	1.312896e-02	5.648509e-02	2.890409e-01	1.695563e-02	2.720852e-01	-1.275648e-01	-2.167806e-02	5.221054e-03	3.489047e-21	5.221054e-03	-5.221054e-03
0.63          	6.923359e-02	1.294319e-02	5.629040e-02	2.889814e-01	1.709983e-02	2.718816e-01	-1.273909e-01	-2.167360e-02	5.192519e-03	3.503673e-21	5.192519e-03	-5.192519e-03
0.635         	6.885513e-02	1.275685e-02	5.609827e-02	2.889428e-01	1.724027e-02	2.717025e-01	-1.272311e-01	-2.167071e-02	5.164135e-03	3.518064e-21	5.164135e-03	-5.164135e-03
0.64          	6.848065e-02	1.256983e-02	5.591082e-02	2.889399e-01	1.737289e-02	2.715670e-01	-1.270971e-01	-2.167049e-02	5.136048e-03	3.532235e-21	5.136048e-03	-5.136048e-03
0.645         	6.811059e-02	1.238171e-02	5.572888e-02	2.889811e-01	1.749597e-02	2.714852e-01	-1.269946e-01	-2.167359e-02	5.108294e-03	3.546241e-21	5.108294e-03	-5.108294e-03
0.65          	6.774535e-02	1.219268e-02	5.555268e-02	2.890666e-01	1.761143e-02	2.714552e-01	-1.269219e-01	-2.168000e-02	5.080902e-03	3.560085e-21	5.080902e-03	-5.080902e-03
0.655         	6.738533e-02	1.200254e-02	5.538279e-02	2.892016e-01	1.771764e-02	2.714840e-01	-1.268832e-01	-2.169012e-02	5.053900e-03	3.571966e-21	5.053900e-03	-5.053900e-03
0.66          	6.703113e-02	1.181143e-02	5.521970e-02	2.893885e-01	1.781563e-02	2.715729e-01	-1.268786e-01	-2.170414e-02	5.027335e-03	3.582225e-21	5.027335e-03	-5.027335e-03
0.665         	6.668271e-02	1.161946e-02	5.506325e-02	2.896253e-01	1.790737e-02	2.717179e-01	-1.269053e-01	-2.172190e-02	5.001203e-03	3.592157e-21	5.001203e-03	-5.001203e-03
0.67          	6.634111e-02	1.142602e-02	5.491508e-02	2.899271e-01	1.798751e-02	2.719395e-01	-1.269760e-01	-2.174453e-02	4.975583e-03	3.601805e-21	4.975583e-03	-4.975583e-03
0.675         	6.600572e-02	1.123134e-02	5.477438e-02	2.902870e-01	1.805942e-02	2.722275e-01	-1.270841e-01	-2.177152e-02	4.950429e-03	3.611216e-21	4.950429e-03	-4.950429e-03
0.68          	6.567674e-02	1.103546e-02	5.464128e-02	2.907054e-01	1.812324e-02	2.725822e-01	-1.272295e-01	-2.180291e-02	4.925756e-03	3.620484e-21	4.925756e-03	-4.925756e-03
0.685         	6.535299e-02	1.083734e-02	5.451565e-02	2.911888e-01	1.817899e-02	2.730098e-01	-1.274154e-01	-2.183916e-02	4.901474e-03	3.629555e-21	4.901474e-03	-4.901474e-03
0.69          	6.503478e-02	1.063745e-02	5.439733e-02	2.917325e-01	1.822803e-02	2.735045e-01	-1.276382e-01	-2.187994e-02	4.877609e-03	3.638483e-21	4.877609e-03	-4.877609e-03
0.695         	6.472416e-02	1.043583e-02	5.428833e-02	2.923500e-01	1.826572e-02	2.740842e-01	-1.279093e-01	-2.192625e-02	4.854312e-03	3.647318e-21	4.854312e-03	-4.854312e-03
0.7           	6.441990e-02	1.023282e-02	5.418708e-02	2.930284e-01	1.829590e-02	2.747325e-01	-1.282183e-01	-2.197713e-02	4.831493e-03	3.656069e-21	4.831493e-03	-4.831493e-03
0.705         	6.412207e-02	1.002820e-02	5.409386e-02	2.937711e-01	1.831668e-02	2.754544e-01	-1.285689e-01	-2.203283e-02	4.809155e-03	3.665695e-21	4.809155e-03	-4.809155e-03
0.71          	6.383025e-02	9.822567e-03	5.400768e-02	2.945674e-01	1.833273e-02	2.762347e-01	-1.289510e-01	-2.209256e-02	4.787269e-03	3.675592e-21	4.787269e-03	-4.787269e-03
0.715         	6.354578e-02	9.615378e-03	5.393041e-02	2.954335e-01	1.833882e-02	2.770947e-01	-1.293779e-01	-2.215751e-02	4.765934e-03	3.685553e-21	4.765934e-03	-4.765934e-03
0.72          	6.326847e-02	9.406381e-03	5.386209e-02	2.963714e-01	1.833482e-02	2.780365e-01	-1.298509e-01	-2.222785e-02	4.745135e-03	3.695607e-21	4.745135e-03	-4.745135e-03
0.725         	6.299966e-02	9.196394e-03	5.380326e-02	2.973791e-01	1.832004e-02	2.790591e-01	-1.303695e-01	-2.230343e-02	4.724974e-03	3.705758e-21	4.724974e-03	-4.724974e-03
0.73          	6.273960e-02	8.985284e-03	5.375431e-02	2.984602e-01	1.829359e-02	2.801666e-01	-1.309365e-01	-2.238452e-02	4.705470e-03	3.716048e-21	4.705470e-03	-4.705470e-03
0.735         	6.248575e-02	8.771882e-03	5.371387e-02	2.996133e-01	1.825867e-02	2.813546e-01	-1.315480e-01	-2.247100e-02	4.686432e-03	3.726541e-21	4.686432e-03	-4.686432e-03
0.74          	6.223948e-02	8.556628e-03	5.368285e-02	3.008415e-01	1.821418e-02	2.826273e-01	-1.322066e-01	-2.256311e-02	4.667961e-03	3.737259e-21	4.667961e-03	-4.667961e-03
0.745         	6.199950e-02	8.339695e-03	5.365980e-02	3.021340e-01	1.816261e-02	2.839714e-01	-1.329044e-01	-2.266005e-02	4.649962e-03	3.748231e-21	4.649962e-03	-4.649962e-03
0.75          	6.176708e-02	8.121100e-03	5.364598e-02	3.034992e-01	1.810169e-02	2.853975e-01	-1.336479e-01	-2.276244e-02	4.632531e-03	3.759517e-21	4.632531e-03	-4.632531e-03
0.755         	6.154098e-02	7.900965e-03	5.364001e-02	3.049270e-01	1.803369e-02	2.868933e-01	-1.344298e-01	-2.286952e-02	4.615573e-03	3.771153e-21	4.615573e-03	-4.615573e-03
0.76          	6.132089e-02	7.678672e-03	5.364221e-02	3.064236e-01	1.795929e-02	2.884643e-01	-1.352525e-01	-2.298177e-02	4.599066e-03	3.783108e-21	4.599066e-03	-4.599066e-03
0.765         	6.110630e-02	7.454382e-03	5.365192e-02	3.079836e-01	1.787814e-02	2.901055e-01	-1.361137e-01	-2.309877e-02	4.582973e-03	3.795424e-21	4.582973e-03	-4.582973e-03
0.77          	6.089660e-02	7.228104e-03	5.366850e-02	3.096026e-01	1.779253e-02	2.918101e-01	-1.370088e-01	-2.322020e-02	4.567245e-03	3.808147e-21	4.567245e-03	-4.567245e-03
0.775         	6.069297e-02	6.999809e-03	5.369316e-02	3.112890e-01	1.769842e-02	2.935906e-01	-1.379461e-01	-2.334667e-02	4.551973e-03	3.821316e-21	4.551973e-03	-4.551973e-03
0.78          	6.049445e-02	6.769280e-03	5.372517e-02	3.130393e-01	1.759722e-02	2.954421e-01	-1.389224e-01	-2.347795e-02	4.537084e-03	3.834960e-21	4.537084e-03	-4.537084e-03
0.785         	6.029958e-02	6.536604e-03	5.376297e-02	3.148425e-01	1.749264e-02	2.973498e-01	-1.399286e-01	-2.361318e-02	4.522468e-03	3.849119e-21	4.522468e-03	-4.522468e-03
0.79          	6.010650e-02	6.301202e-03	5.380530e-02	3.166940e-01	1.738713e-02	2.993068e-01	-1.409599e-01	-2.375205e-02	4.507987e-03	3.865997e-21	4.507987e-03	-4.507987e-03
0.795         	5.991404e-02	6.063262e-03	5.385078e-02	3.185834e-01	1.728386e-02	3.012996e-01	-1.420079e-01	-2.389376e-02	4.493553e-03	3.883231e-21	4.493553e-03	-4.493553e-03
0.8           	5.972204e-02	5.822457e-03	5.389959e-02	3.205142e-01	1.718243e-02	3.033318e-01	-1.430747e-01	-2.403856e-02	4.479153e-03	3.900932e-21	4.479153e-03	-4.479153e-03
0.805         	5.953015e-02	5.578862e-03	5.395129e-02	3.224828e-01	1.708323e-02	3.053996e-01	-1.441582e-01	-2.418621e-02	4.464761e-03	3.919218e-21	4.464761e-03	-4.464761e-03
0.81          	5.933631e-02	5.332325e-03	5.400398e-02	3.244777e-01	1.699007e-02	3.074876e-01	-1.452488e-01	-2.433583e-02	4.450223e-03	3.938159e-21	4.450223e-03	-4.450223e-03
0.815         	5.914146e-02	5.083280e-03	5.405818e-02	3.264993e-01	1.690195e-02	3.095974e-01	-1.463477e-01	-2.448745e-02	4.435610e-03	3.957764e-21	4.435610e-03	-4.435610e-03
0.82          	5.899405e-02	4.851268e-03	5.414278e-02	3.286101e-01	1.677583e-02	3.118343e-01	-1.475292e-01	-2.464576e-02	4.424554e-03	3.977955e-21	4.424554e-03	-4.424554e-03
0.825         	5.879726e-02	4.598989e-03	5.419827e-02	3.306619e-01	1.669294e-02	3.139690e-01	-1.486380e-01	-2.479964e-02	4.409795e-03	3.998924e-21	4.409795e-03	-4.409795e-03
0.83          	5.859811e-02	4.343707e-03	5.425440e-02	3.327379e-01	1.661405e-02	3.161239e-01	-1.497549e-01	-2.495535e-02	4.394858e-03	4.020543e-21	4.394858e-03	-4.394858e-03
0.835         	5.839827e-02	4.085918e-03	5.431235e-02	3.348429e-01	1.653782e-02	3.183051e-01	-1.508836e-01	-2.511322e-02	4.379870e-03	4.043138e-21	4.379870e-03	-4.379870e-03
0.84          	5.819779e-02	3.825458e-03	5.437233e-02	3.369791e-01	1.646318e-02	3.205160e-01	-1.520264e-01	-2.527344e-02	4.364834e-03	4.067334e-21	4.364834e-03	-4.364834e-03