# Force and moment coefficients
# dragDir     : (1.000000e+00 0.000000e+00 0.000000e+00)
# sideDir     : (0.000000e+00 0.000000e+00 -1.000000e+00)
# liftDir     : (0.000000e+00 1.000000e+00 0.000000e+00)
# rollAxis    : (1.000000e+00 0.000000e+00 0.000000e+00)
# pitchAxis   : (0.000000e+00 0.000000e+00 -1.000000e+00)
# yawAxis     : (0.000000e+00 1.000000e+00 0.000000e+00)
# magUInf     : 5.810839e+01
# lRef        : 1.000000e+00
# Aref        : 1.284000e-01
# CofR        : (0.000000e+00 0.000000e+00 0.000000e+00)
#
# Time        	Cd            	Cd(f)         	Cd(r)         	Cl            	Cl(f)         	Cl(r)         	CmPitch       	CmRoll        	CmYaw         	Cs            	Cs(f)         	Cs(r)         
0.005         	1.267141e+00	5.820820e-01	6.850587e-01	6.865114e-01	-2.436558e-01	9.301673e-01	-5.869116e-01	-5.148836e-02	9.503555e-02	-1.428986e-19	9.503555e-02	-9.503555e-02
0.01          	2.906259e-01	1.461372e-01	1.444887e-01	-1.098985e-02	-2.598425e-02	1.499440e-02	-2.048932e-02	8.242389e-04	2.179694e-02	-2.611069e-20	2.179694e-02	-2.179694e-02
0.015         	9.008063e-02	4.410009e-02	4.598054e-02	1.253632e-02	-1.408529e-04	1.267718e-02	-6.409015e-03	-9.402243e-04	6.756047e-03	5.870755e-21	6.756047e-03	-6.756047e-03
0.02          	5.912316e-02	2.527464e-02	3.384852e-02	5.715923e-02	1.926120e-03	5.523311e-02	-2.665350e-02	-4.286943e-03	4.434237e-03	7.528882e-21	4.434237e-03	-4.434237e-03
0.025         	6.180683e-02	2.635807e-02	3.544876e-02	6.060461e-02	3.757949e-03	5.684666e-02	-2.654436e-02	-4.545346e-03	4.635512e-03	3.976718e-21	4.635512e-03	-4.635512e-03
0.03          	7.039103e-02	3.082279e-02	3.956824e-02	5.830304e-02	4.302476e-03	5.400057e-02	-2.484905e-02	-4.372728e-03	5.279327e-03	1.739834e-21	5.279327e-03	-5.279327e-03
0.035         	7.795957e-02	3.419325e-02	4.376632e-02	6.382050e-02	3.317560e-03	6.050294e-02	-2.859269e-02	-4.786537e-03	5.846968e-03	1.109370e-21	5.846968e-03	-5.846968e-03
0.04          	8.607859e-02	3.733044e-02	4.874815e-02	7.611809e-02	1.106913e-03	7.501118e-02	-3.695213e-02	-5.708857e-03	6.455895e-03	1.207267e-21	6.455895e-03	-6.455895e-03
0.045         	9.346331e-02	4.011431e-02	5.334900e-02	8.823123e-02	-1.978848e-03	9.021007e-02	-4.609446e-02	-6.617342e-03	7.009748e-03	1.399116e-21	7.009748e-03	-7.009748e-03
0.05          	1.001991e-01	4.229585e-02	5.790323e-02	1.040492e-01	-5.350418e-03	1.093996e-01	-5.737501e-02	-7.803688e-03	7.514931e-03	1.484843e-21	7.514931e-03	-7.514931e-03
0.055         	1.071124e-01	4.451316e-02	6.259927e-02	1.205740e-01	-7.952104e-03	1.285261e-01	-6.823912e-02	-9.043052e-03	8.033433e-03	1.533783e-21	8.033433e-03	-8.033433e-03
0.06          	1.142403e-01	4.720198e-02	6.703831e-02	1.322422e-01	-9.085949e-03	1.413282e-01	-7.520706e-02	-9.918167e-03	8.568022e-03	1.576230e-21	8.568022e-03	-8.568022e-03
0.065         	1.210805e-01	4.991765e-02	7.116286e-02	1.416348e-01	-9.189513e-03	1.508243e-01	-8.000690e-02	-1.062261e-02	9.081039e-03	1.613340e-21	9.081039e-03	-9.081039e-03
0.07          	1.273387e-01	5.260225e-02	7.473647e-02	1.475615e-01	-8.697551e-03	1.562590e-01	-8.247828e-02	-1.106711e-02	9.550404e-03	1.645626e-21	9.550404e-03	-9.550404e-03
0.075         	1.326377e-01	5.479395e-02	7.784371e-02	1.536650e-01	-8.362484e-03	1.620275e-01	-8.519500e-02	-1.152488e-02	9.947824e-03	1.659764e-21	9.947824e-03	-9.947824e-03
0.08          	1.374668e-01	5.677561e-02	8.069117e-02	1.594370e-01	-8.682027e-03	1.681190e-01	-8.840054e-02	-1.195778e-02	1.031001e-02	1.666799e-21	1.031001e-02	-1.031001e-02
0.085         	1.418055e-01	5.836352e-02	8.344200e-02	1.671899e-01	-9.165765e-03	1.763556e-01	-9.276070e-02	-1.253924e-02	1.063541e-02	1.653133e-21	1.063541e-02	-1.063541e-02
0.09          	1.462093e-01	6.005108e-02	8.615823e-02	1.740477e-01	-9.360497e-03	1.834082e-01	-9.638435e-02	-1.305358e-02	1.096570e-02	1.658460e-21	1.096570e-02	-1.096570e-02
0.095         	1.499729e-01	6.146793e-02	8.850493e-02	1.802466e-01	-9.551377e-03	1.897980e-01	-9.967469e-02	-1.351850e-02	1.124796e-02	1.652447e-21	1.124796e-02	-1.124796e-02
0.1           	1.529274e-01	6.236355e-02	9.056385e-02	1.880020e-01	-9.565267e-03	1.975673e-01	-1.035663e-01	-1.410015e-02	1.146956e-02	1.633735e-21	1.146956e-02	-1.146956e-02
0.105         	1.552702e-01	6.314450e-02	9.212573e-02	1.932082e-01	-9.544518e-03	2.027527e-01	-1.061486e-01	-1.449061e-02	1.164527e-02	1.620941e-21	1.164527e-02	-1.164527e-02
0.11          	1.569856e-01	6.380790e-02	9.317768e-02	1.957986e-01	-8.956517e-03	2.047551e-01	-1.068558e-01	-1.468489e-02	1.177392e-02	1.604100e-21	1.177392e-02	-1.177392e-02
0.115         	1.581397e-01	6.419279e-02	9.394688e-02	1.983606e-01	-8.553603e-03	2.069142e-01	-1.077339e-01	-1.487705e-02	1.186048e-02	1.573052e-21	1.186048e-02	-1.186048e-02
0.12          	1.588487e-01	6.437562e-02	9.447308e-02	2.006498e-01	-8.093375e-03	2.087431e-01	-1.084183e-01	-1.504873e-02	1.191365e-02	1.537097e-21	1.191365e-02	-1.191365e-02
0.125         	1.591128e-01	6.443454e-02	9.467829e-02	2.016250e-01	-7.377991e-03	2.090030e-01	-1.081905e-01	-1.512188e-02	1.193346e-02	1.501428e-21	1.193346e-02	-1.193346e-02
0.13          	1.588726e-01	6.442466e-02	9.444790e-02	2.001550e-01	-6.316473e-03	2.064714e-01	-1.063940e-01	-1.501162e-02	1.191544e-02	1.468279e-21	1.191544e-02	-1.191544e-02
0.135         	1.584223e-01	6.432397e-02	9.409830e-02	1.984956e-01	-5.416071e-03	2.039116e-01	-1.046639e-01	-1.488717e-02	1.188167e-02	1.437836e-21	1.188167e-02	-1.188167e-02
0.14          	1.575253e-01	6.409904e-02	9.342622e-02	1.955145e-01	-4.158995e-03	1.996735e-01	-1.019163e-01	-1.466359e-02	1.181440e-02	1.406928e-21	1.181440e-02	-1.181440e-02
0.145         	1.562427e-01	6.400722e-02	9.223552e-02	1.881886e-01	-2.237020e-03	1.904257e-01	-9.633134e-02	-1.411415e-02	1.171821e-02	1.396927e-21	1.171821e-02	-1.171821e-02
0.15          	1.546243e-01	6.401802e-02	9.060631e-02	1.772553e-01	1.509190e-04	1.771044e-01	-8.847673e-02	-1.329415e-02	1.159682e-02	1.393083e-21	1.159682e-02	-1.159682e-02
0.155         	1.527040e-01	6.394508e-02	8.875895e-02	1.654258e-01	2.638837e-03	1.627870e-01	-8.007406e-02	-1.240693e-02	1.145280e-02	1.378675e-21	1.145280e-02	-1.145280e-02
0.16          	1.505745e-01	6.390442e-02	8.667005e-02	1.517709e-01	5.502218e-03	1.462686e-01	-7.038321e-02	-1.138281e-02	1.129309e-02	1.370183e-21	1.129309e-02	-1.129309e-02
0.165         	1.482219e-01	6.405626e-02	8.416563e-02	1.340624e-01	8.974567e-03	1.250878e-01	-5.805663e-02	-1.005468e-02	1.111664e-02	1.382003e-21	1.111664e-02	-1.111664e-02
0.17          	1.456621e-01	6.423699e-02	8.142511e-02	1.145875e-01	1.267150e-02	1.019159e-01	-4.462222e-02	-8.594059e-03	1.092466e-02	1.394907e-21	1.092466e-02	-1.092466e-02
0.175         	1.429917e-01	6.430669e-02	7.868499e-02	9.585530e-02	1.620083e-02	7.965447e-02	-3.172682e-02	-7.189148e-03	1.072438e-02	1.389147e-21	1.072438e-02	-1.072438e-02
0.18          	1.403191e-01	6.447129e-02	7.584785e-02	7.584374e-02	1.980101e-02	5.604274e-02	-1.812086e-02	-5.688281e-03	1.052394e-02	1.393513e-21	1.052394e-02	-1.052394e-02
0.185         	1.377165e-01	6.467775e-02	7.303872e-02	5.573979e-02	2.330371e-02	3.243607e-02	-4.566181e-03	-4.180484e-03	1.032873e-02	1.418316e-21	1.032873e-02	-1.032873e-02
0.19          	1.351995e-01	6.474172e-02	7.045774e-02	3.810678e-02	2.631199e-02	1.179479e-02	7.258603e-03	-2.858008e-03	1.013996e-02	1.426516e-21	1.013996e-02	-1.013996e-02
0.195         	1.328911e-01	6.472299e-02	6.816811e-02	2.296745e-02	2.878819e-02	-5.820746e-03	1.730447e-02	-1.722559e-03	9.966832e-03	1.432918e-21	9.966832e-03	-9.966832e-03
0.2           	1.308525e-01	6.474524e-02	6.610726e-02	9.080108e-03	3.086650e-02	-2.178639e-02	2.632644e-02	-6.810081e-04	9.813937e-03	1.464253e-21	9.813937e-03	-9.813937e-03
0.205         	1.290196e-01	6.456851e-02	6.445105e-02	-7.830243e-04	3.204261e-02	-3.282564e-02	3.243413e-02	5.872683e-05	9.676467e-03	1.475971e-21	9.676467e-03	-9.676467e-03
0.21          	1.275241e-01	6.425220e-02	6.327192e-02	-6.535205e-03	3.231854e-02	-3.885375e-02	3.558615e-02	4.901404e-04	9.564308e-03	1.487751e-21	9.564308e-03	-9.564308e-03
0.215         	1.264598e-01	6.389582e-02	6.256399e-02	-8.878869e-03	3.177531e-02	-4.065418e-02	3.621475e-02	6.659151e-04	9.484486e-03	1.521342e-21	9.484486e-03	-9.484486e-03
0.22          	1.257548e-01	6.336972e-02	6.238505e-02	-6.564456e-03	3.022558e-02	-3.679004e-02	3.350781e-02	4.923342e-04	9.431608e-03	1.539455e-21	9.431608e-03	-9.431608e-03
0.225         	1.253882e-01	6.270249e-02	6.268567e-02	-1.121681e-04	2.784894e-02	-2.796111e-02	2.790503e-02	8.412610e-06	9.404112e-03	1.549826e-21	9.404112e-03	-9.404112e-03
0.23          	1.253516e-01	6.196156e-02	6.339000e-02	9.522928e-03	2.481134e-02	-1.528842e-02	2.004988e-02	-7.142196e-04	9.401367e-03	1.582355e-21	9.401367e-03	-9.401367e-03
0.235         	1.255012e-01	6.107576e-02	6.442545e-02	2.233129e-02	2.119421e-02	1.137085e-03	1.002856e-02	-1.674847e-03	9.412591e-03	1.596742e-21	9.412591e-03	-9.412591e-03
0.24          	1.258099e-01	6.010145e-02	6.570844e-02	3.737996e-02	1.722997e-02	2.014999e-02	-1.460008e-03	-2.803497e-03	9.435742e-03	1.609696e-21	9.435742e-03	-9.435742e-03
0.245         	1.261690e-01	5.910995e-02	6.705907e-02	5.299414e-02	1.321637e-02	3.977777e-02	-1.328070e-02	-3.974561e-03	9.462676e-03	1.637213e-21	9.462676e-03	-9.462676e-03
0.25          	1.264574e-01	5.802179e-02	6.843556e-02	6.942514e-02	9.219671e-03	6.020547e-02	-2.549290e-02	-5.206885e-03	9.484302e-03	1.643814e-21	9.484302e-03	-9.484302e-03
0.255         	1.262523e-01	5.666569e-02	6.958665e-02	8.613972e-02	5.336179e-03	8.080354e-02	-3.773368e-02	-6.460479e-03	9.468925e-03	1.660546e-21	9.468925e-03	-9.468925e-03
0.26          	1.266851e-01	5.586133e-02	7.082379e-02	9.974976e-02	2.140342e-03	9.760942e-02	-4.773454e-02	-7.481232e-03	9.501384e-03	1.693536e-21	9.501384e-03	-9.501384e-03
0.265         	1.261575e-01	5.457077e-02	7.158677e-02	1.134400e-01	-6.187719e-04	1.140588e-01	-5.733877e-02	-8.508000e-03	9.461815e-03	1.687986e-21	9.461815e-03	-9.461815e-03
0.27          	1.261155e-01	5.388451e-02	7.223101e-02	1.223100e-01	-2.529599e-03	1.248396e-01	-6.368459e-02	-9.173249e-03	9.458664e-03	1.716534e-21	9.458664e-03	-9.458664e-03
0.275         	1.250628e-01	5.275964e-02	7.230320e-02	1.302903e-01	-3.850202e-03	1.341405e-01	-6.899537e-02	-9.771776e-03	9.379713e-03	1.717946e-21	9.379713e-03	-9.379713e-03
0.28          	1.240828e-01	5.187942e-02	7.220340e-02	1.354932e-01	-4.601580e-03	1.400948e-01	-7.234818e-02	-1.016199e-02	9.306212e-03	1.733452e-21	9.306212e-03	-9.306212e-03
0.285         	1.235220e-01	5.143631e-02	7.208566e-02	1.376624e-01	-4.918656e-03	1.425810e-01	-7.374983e-02	-1.032468e-02	9.264148e-03	1.753993e-21	9.264148e-03	-9.264148e-03
0.29          	1.220432e-01	5.054667e-02	7.149657e-02	1.396660e-01	-4.781031e-03	1.444471e-01	-7.461405e-02	-1.047495e-02	9.153243e-03	1.753633e-21	9.153243e-03	-9.153243e-03
0.295         	1.206857e-01	4.984810e-02	7.083764e-02	1.399302e-01	-4.386214e-03	1.443165e-01	-7.435134e-02	-1.049477e-02	9.051430e-03	1.775700e-21	9.051430e-03	-9.051430e-03
0.3           	1.193842e-01	4.922488e-02	7.015932e-02	1.395630e-01	-3.872732e-03	1.434357e-01	-7.365421e-02	-1.046722e-02	8.953815e-03	1.789356e-21	8.953815e-03	-8.953815e-03
0.305         	1.181146e-01	4.863902e-02	6.947563e-02	1.389107e-01	-3.328070e-03	1.422388e-01	-7.278342e-02	-1.041830e-02	8.858599e-03	1.799182e-21	8.858599e-03	-8.858599e-03
0.31          	1.169111e-01	4.809753e-02	6.881357e-02	1.381069e-01	-2.830403e-03	1.409373e-01	-7.188384e-02	-1.035802e-02	8.768333e-03	1.817288e-21	8.768333e-03	-8.768333e-03
0.315         	1.157656e-01	4.754567e-02	6.821994e-02	1.378285e-01	-2.423538e-03	1.402520e-01	-7.133777e-02	-1.033713e-02	8.682420e-03	1.824034e-21	8.682420e-03	-8.682420e-03
0.32          	1.146824e-01	4.700783e-02	6.767453e-02	1.377779e-01	-2.095726e-03	1.398737e-01	-7.098470e-02	-1.033335e-02	8.601177e-03	1.838140e-21	8.601177e-03	-8.601177e-03
0.325         	1.136527e-01	4.646254e-02	6.719019e-02	1.381844e-01	-1.858443e-03	1.400428e-01	-7.095062e-02	-1.036383e-02	8.523954e-03	1.843966e-21	8.523954e-03	-8.523954e-03
0.33          	1.126718e-01	4.591803e-02	6.675378e-02	1.389050e-01	-1.689909e-03	1.405949e-01	-7.114239e-02	-1.041787e-02	8.450386e-03	1.850806e-21	8.450386e-03	-8.450386e-03
0.335         	1.117437e-01	4.538947e-02	6.635426e-02	1.397652e-01	-1.591385e-03	1.413566e-01	-7.147400e-02	-1.048239e-02	8.380780e-03	1.861954e-21	8.380780e-03	-8.380780e-03
0.34          	1.108633e-01	4.485926e-02	6.600407e-02	1.409654e-01	-1.543786e-03	1.425092e-01	-7.202650e-02	-1.057241e-02	8.314750e-03	1.867277e-21	8.314750e-03	-8.314750e-03
0.345         	1.100140e-01	4.433993e-02	6.567403e-02	1.422274e-01	-1.506261e-03	1.437336e-01	-7.261994e-02	-1.066705e-02	8.251047e-03	1.875526e-21	8.251047e-03	-8.251047e-03
0.35          	1.091932e-01	4.382515e-02	6.536808e-02	1.436195e-01	-1.493457e-03	1.451129e-01	-7.330319e-02	-1.077146e-02	8.189492e-03	1.879968e-21	8.189492e-03	-8.189492e-03
0.355         	1.083853e-01	4.332189e-02	6.506341e-02	1.449434e-01	-1.483109e-03	1.464265e-01	-7.395481e-02	-1.087076e-02	8.128898e-03	1.886364e-21	8.128898e-03	-8.128898e-03
0.36          	1.075926e-01	4.282193e-02	6.477064e-02	1.463248e-01	-1.479546e-03	1.478043e-01	-7.464193e-02	-1.097436e-02	8.069443e-03	1.890740e-21	8.069443e-03	-8.069443e-03
0.365         	1.068160e-01	4.232303e-02	6.449300e-02	1.477998e-01	-1.478715e-03	1.492785e-01	-7.537861e-02	-1.108498e-02	8.011202e-03	1.895135e-21	8.011202e-03	-8.011202e-03
0.37          	1.060522e-01	4.182701e-02	6.422516e-02	1.493210e-01	-1.475438e-03	1.507964e-01	-7.613592e-02	-1.119907e-02	7.953913e-03	1.900223e-21	7.953913e-03	-7.953913e-03
0.375         	1.053131e-01	4.133545e-02	6.397766e-02	1.509481e-01	-1.472446e-03	1.524205e-01	-7.694647e-02	-1.132110e-02	7.898483e-03	1.903391e-21	7.898483e-03	-7.898483e-03
0.38          	1.045883e-01	4.084748e-02	6.374077e-02	1.526219e-01	-1.475098e-03	1.540970e-01	-7.778606e-02	-1.144664e-02	7.844119e-03	1.907951e-21	7.844119e-03	-7.844119e-03
0.385         	1.038819e-01	4.036293e-02	6.351900e-02	1.543738e-01	-1.477750e-03	1.558516e-01	-7.866466e-02	-1.157804e-02	7.791145e-03	1.909442e-21	7.791145e-03	-7.791145e-03
0.39          	1.031928e-01	3.988642e-02	6.330633e-02	1.561327e-01	-1.488478e-03	1.576212e-01	-7.955485e-02	-1.170996e-02	7.739457e-03	1.912885e-21	7.739457e-03	-7.739457e-03
0.395         	1.025191e-01	3.941282e-02	6.310627e-02	1.579563e-01	-1.499293e-03	1.594556e-01	-8.047744e-02	-1.184672e-02	7.688932e-03	1.915552e-21	7.688932e-03	-7.688932e-03
0.4           	1.018608e-01	3.894317e-02	6.291761e-02	1.598296e-01	-1.519256e-03	1.613488e-01	-8.143405e-02	-1.198722e-02	7.639559e-03	1.917409e-21	7.639559e-03	-7.639559e-03
0.405         	1.012134e-01	3.847344e-02	6.273999e-02	1.617770e-01	-1.533735e-03	1.633108e-01	-8.242225e-02	-1.213328e-02	7.591007e-03	1.919029e-21	7.591007e-03	-7.591007e-03
0.41          	1.005764e-01	3.800529e-02	6.257114e-02	1.637724e-01	-1.543535e-03	1.653159e-01	-8.342973e-02	-1.228293e-02	7.543232e-03	1.921782e-21	7.543232e-03	-7.543232e-03
0.415         	9.994709e-02	3.753810e-02	6.240899e-02	1.658059e-01	-1.550074e-03	1.673560e-01	-8.445302e-02	-1.243544e-02	7.496032e-03	1.926234e-21	7.496032e-03	-7.496032e-03
0.42          	9.933273e-02	3.707312e-02	6.225961e-02	1.679099e-01	-1.563757e-03	1.694737e-01	-8.551870e-02	-1.259324e-02	7.449955e-03	1.930621e-21	7.449955e-03	-7.449955e-03
0.425         	9.873092e-02	3.661271e-02	6.211821e-02	1.700367e-01	-1.584276e-03	1.716209e-01	-8.660261e-02	-1.275275e-02	7.404819e-03	1.936962e-21	7.404819e-03	-7.404819e-03
0.43          	9.814044e-02	3.615431e-02	6.198613e-02	1.722122e-01	-1.605332e-03	1.738175e-01	-8.771142e-02	-1.291591e-02	7.360533e-03	1.943056e-21	7.360533e-03	-7.360533e-03
0.435         	9.755780e-02	3.569612e-02	6.186169e-02	1.744371e-01	-1.626471e-03	1.760636e-01	-8.884504e-02	-1.308278e-02	7.316835e-03	1.948649e-21	7.316835e-03	-7.316835e-03
0.44          	9.698145e-02	3.523764e-02	6.174381e-02	1.767078e-01	-1.648465e-03	1.783562e-01	-9.000235e-02	-1.325308e-02	7.273609e-03	1.953036e-21	7.273609e-03	-7.273609e-03
0.445         	9.630062e-02	3.471299e-02	6.158762e-02	1.791642e-01	-1.635947e-03	1.808002e-01	-9.121806e-02	-1.343732e-02	7.222546e-03	1.951809e-21	7.222546e-03	-7.222546e-03
0.45          	9.584336e-02	3.431829e-02	6.152507e-02	1.813785e-01	-1.675129e-03	1.830536e-01	-9.236437e-02	-1.360339e-02	7.188252e-03	1.960173e-21	7.188252e-03	-7.188252e-03
0.455         	9.520038e-02	3.380922e-02	6.139116e-02	1.838797e-01	-1.680817e-03	1.855605e-01	-9.362065e-02	-1.379097e-02	7.140028e-03	1.959380e-21	7.140028e-03	-7.140028e-03
0.46          	9.475449e-02	3.341934e-02	6.133515e-02	1.861054e-01	-1.724093e-03	1.878295e-01	-9.477680e-02	-1.395791e-02	7.106587e-03	1.967566e-21	7.106587e-03	-7.106587e-03
0.465         	9.412945e-02	3.291172e-02	6.121772e-02	1.887067e-01	-1.731063e-03	1.904377e-01	-9.608440e-02	-1.415300e-02	7.059708e-03	1.966215e-21	7.059708e-03	-7.059708e-03
0.47          	9.369617e-02	3.252151e-02	6.117466e-02	1.910209e-01	-1.777545e-03	1.927985e-01	-9.728802e-02	-1.432657e-02	7.027213e-03	1.974539e-21	7.027213e-03	-7.027213e-03
0.475         	9.309425e-02	3.201872e-02	6.107553e-02	1.937121e-01	-1.791080e-03	1.955031e-01	-9.864711e-02	-1.452840e-02	6.982069e-03	1.973471e-21	6.982069e-03	-6.982069e-03
0.48          	9.267423e-02	3.163398e-02	6.104025e-02	1.960418e-01	-1.841605e-03	1.978834e-01	-9.986251e-02	-1.470314e-02	6.950567e-03	1.982308e-21	6.950567e-03	-6.950567e-03
0.485         	9.209219e-02	3.113909e-02	6.095310e-02	1.987601e-01	-1.863755e-03	2.006239e-01	-1.012438e-01	-1.490701e-02	6.906914e-03	1.981322e-21	6.906914e-03	-6.906914e-03
0.49          	9.167958e-02	3.076062e-02	6.091896e-02	2.010556e-01	-1.911342e-03	2.029670e-01	-1.024391e-01	-1.507917e-02	6.875968e-03	1.990829e-21	6.875968e-03	-6.875968e-03
0.495         	9.111472e-02	3.027305e-02	6.084167e-02	2.037908e-01	-1.932024e-03	2.057228e-01	-1.038274e-01	-1.528431e-02	6.833604e-03	1.990599e-21	6.833604e-03	-6.833604e-03
0.5           	9.070928e-02	2.989461e-02	6.081467e-02	2.061337e-01	-1.980188e-03	2.081139e-01	-1.050470e-01	-1.546003e-02	6.803196e-03	2.000808e-21	6.803196e-03	-6.803196e-03
0.505         	9.025039e-02	2.947914e-02	6.077125e-02	2.086140e-01	-2.028198e-03	2.106422e-01	-1.063352e-01	-1.564605e-02	6.768780e-03	2.007587e-21	6.768780e-03	-6.768780e-03
0.51          	8.970355e-02	2.899191e-02	6.071164e-02	2.114649e-01	-2.057164e-03	2.135220e-01	-1.077896e-01	-1.585987e-02	6.727766e-03	2.008044e-21	6.727766e-03	-6.727766e-03
0.515         	8.932308e-02	2.862347e-02	6.069961e-02	2.138409e-01	-2.115979e-03	2.159569e-01	-1.090364e-01	-1.603807e-02	6.699231e-03	2.019987e-21	6.699231e-03	-6.699231e-03
0.52          	8.888675e-02	2.821803e-02	6.066872e-02	2.163379e-01	-2.167521e-03	2.185054e-01	-1.103365e-01	-1.622534e-02	6.666507e-03	2.027925e-21	6.666507e-03	-6.666507e-03
0.525         	8.844457e-02	2.780566e-02	6.063891e-02	2.188883e-01	-2.216829e-03	2.211051e-01	-1.116610e-01	-1.641662e-02	6.633343e-03	2.036042e-21	6.633343e-03	-6.633343e-03
0.53          	8.800700e-02	2.739501e-02	6.061199e-02	2.214466e-01	-2.262208e-03	2.237088e-01	-1.129855e-01	-1.660849e-02	6.600525e-03	2.044460e-21	6.600525e-03	-6.600525e-03
0.535         	8.757820e-02	2.698817e-02	6.059002e-02	2.240123e-01	-2.309937e-03	2.263223e-01	-1.143161e-01	-1.680092e-02	6.568365e-03	2.053629e-21	6.568365e-03	-6.568365e-03
0.54          	8.715748e-02	2.658518e-02	6.057230e-02	2.265808e-01	-2.362916e-03	2.289437e-01	-1.156533e-01	-1.699356e-02	6.536811e-03	2.063993e-21	6.536811e-03	-6.536811e-03
0.545         	8.674199e-02	2.618473e-02	6.055726e-02	2.291502e-01	-2.414208e-03	2.315644e-01	-1.169893e-01	-1.718626e-02	6.505649e-03	2.074704e-21	6.505649e-03	-6.505649e-03
0.55          	8.633124e-02	2.578585e-02	6.054538e-02	2.317302e-01	-2.467521e-03	2.341977e-01	-1.183326e-01	-1.737976e-02	6.474843e-03	2.087093e-21	6.474843e-03	-6.474843e-03
0.555         	8.592356e-02	2.538830e-02	6.053526e-02	2.343131e-01	-2.517597e-03	2.368307e-01	-1.196742e-01	-1.757348e-02	6.444267e-03	2.099867e-21	6.444267e-03	-6.444267e-03
0.56          	8.551824e-02	2.499246e-02	6.052578e-02	2.368888e-01	-2.565430e-03	2.394542e-01	-1.210098e-01	-1.776666e-02	6.413868e-03	2.113425e-21	6.413868e-03	-6.413868e-03
0.565         	8.511660e-02	2.459902e-02	6.051758e-02	2.394571e-01	-2.613239e-03	2.420703e-01	-1.223418e-01	-1.795928e-02	6.383745e-03	2.127466e-21	6.383745e-03	-6.383745e-03
0.57          	8.472012e-02	2.420768e-02	6.051244e-02	2.420317e-01	-2.662097e-03	2.446938e-01	-1.236780e-01	-1.815238e-02	6.354009e-03	2.141321e-21	6.354009e-03	-6.354009e-03
0.575         	8.432971e-02	2.381950e-02	6.051021e-02	2.446047e-01	-2.712200e-03	2.473169e-01	-1.250146e-01	-1.834535e-02	6.324728e-03	2.155597e-21	6.324728e-03	-6.324728e-03
0.58          	8.394385e-02	2.343303e-02	6.051082e-02	2.471853e-01	-2.762900e-03	2.499482e-01	-1.263556e-01	-1.853890e-02	6.295789e-03	2.169002e-21	6.295789e-03	-6.295789e-03
0.585         	8.356527e-02	2.304934e-02	6.051593e-02	2.497772e-01	-2.819387e-03	2.525966e-01	-1.277080e-01	-1.873329e-02	6.267395e-03	2.182696e-21	6.267395e-03	-6.267395e-03
0.59          	8.319172e-02	2.266713e-02	6.052460e-02	2.523831e-01	-2.878947e-03	2.552621e-01	-1.290705e-01	-1.892873e-02	6.239379e-03	2.196241e-21	6.239379e-03	-6.239379e-03
0.595         	8.282491e-02	2.228698e-02	6.053793e-02	2.550063e-01	-2.943800e-03	2.579501e-01	-1.304470e-01	-1.912548e-02	6.211868e-03	2.209731e-21	6.211868e-03	-6.211868e-03
0.6           	8.246320e-02	2.190793e-02	6.055528e-02	2.576490e-01	-3.014283e-03	2.606633e-01	-1.318388e-01	-1.932368e-02	6.184740e-03	2.224078e-21	6.184740e-03	-6.184740e-03
0.605         	8.210355e-02	2.152924e-02	6.057431e-02	2.603004e-01	-3.084355e-03	2.633848e-01	-1.332346e-01	-1.952253e-02	6.157766e-03	2.237653e-21	6.157766e-03	-6.157766e-03
0.61          	8.174720e-02	2.115162e-02	6.059558e-02	2.629597e-01	-3.155032e-03	2.661147e-01	-1.346349e-01	-1.972198e-02	6.131040e-03	2.251573e-21	6.131040e-03	-6.131040e-03
0.615         	8.139499e-02	2.077568e-02	6.061931e-02	2.656242e-01	-3.226805e-03	2.688510e-01	-1.360389e-01	-1.992182e-02	6.104624e-03	2.264986e-21	6.104624e-03	-6.104624e-03
0.62          	8.104662e-02	2.040111e-02	6.064551e-02	2.682960e-01	-3.301276e-03	2.715973e-01	-1.374493e-01	-2.012220e-02	6.078496e-03	2.278448e-21	6.078496e-03	-6.078496e-03
0.625         	8.070265e-02	2.002845e-02	6.067420e-02	2.709716e-01	-3.377351e-03	2.743490e-01	-1.388632e-01	-2.032287e-02	6.052698e-03	2.292192e-21	6.052698e-03	-6.052698e-03
0.63          	8.036216e-02	1.965685e-02	6.070531e-02	2.736564e-01	-3.455804e-03	2.771122e-01	-1.402840e-01	-2.052423e-02	6.027162e-03	2.305898e-21	6.027162e-03	-6.027162e-03
0.635         	8.002572e-02	1.928648e-02	6.073924e-02	2.763517e-01	-3.537392e-03	2.798891e-01	-1.417132e-01	-2.072638e-02	6.001929e-03	2.320116e-21	6.001929e-03	-6.001929e-03
0.64          	7.969366e-02	1.891767e-02	6.077598e-02	2.790554e-01	-3.621828e-03	2.826772e-01	-1.431495e-01	-2.092915e-02	5.977024e-03	2.334104e-21	5.977024e-03	-5.977024e-03
0.645         	7.936458e-02	1.854953e-02	6.081504e-02	2.817701e-01	-3.706922e-03	2.854770e-01	-1.445919e-01	-2.113275e-02	5.952343e-03	2.347568e-21	5.952343e-03	-5.952343e-03
0.65          	7.903965e-02	1.818265e-02	6.085700e-02	2.844956e-01	-3.792970e-03	2.882886e-01	-1.460408e-01	-2.133717e-02	5.927974e-03	2.360681e-21	5.927974e-03	-5.927974e-03
0.655         	7.871786e-02	1.781690e-02	6.090096e-02	2.872271e-01	-3.879026e-03	2.911061e-01	-1.474926e-01	-2.154203e-02	5.903839e-03	2.373090e-21	5.903839e-03	-5.903839e-03
0.66          	7.839765e-02	1.745235e-02	6.094530e-02	2.899530e-01	-3.963676e-03	2.939167e-01	-1.489402e-01	-2.174648e-02	5.879824e-03	2.384998e-21	5.879824e-03	-5.879824e-03
0.665         	7.807968e-02	1.708884e-02	6.099084e-02	2.926800e-01	-4.049084e-03	2.967291e-01	-1.503891e-01	-2.195100e-02	5.855976e-03	2.396371e-21	5.855976e-03	-5.855976e-03
0.67          	7.776206e-02	1.672588e-02	6.103618e-02	2.954020e-01	-4.131888e-03	2.995339e-01	-1.518329e-01	-2.215515e-02	5.832155e-03	2.407149e-21	5.832155e-03	-5.832155e-03
0.675         	7.744760e-02	1.636338e-02	6.108421e-02	2.981389e-01	-4.219356e-03	3.023582e-01	-1.532888e-01	-2.236042e-02	5.808570e-03	2.417420e-21	5.808570e-03	-5.808570e-03
0.68          	7.713240e-02	1.600061e-02	6.113179e-02	3.008745e-01	-4.304108e-03	3.051786e-01	-1.547414e-01	-2.256559e-02	5.784930e-03	2.426974e-21	5.784930e-03	-5.784930e-03
0.685         	7.681779e-02	1.563777e-02	6.118001e-02	3.036149e-01	-4.387680e-03	3.080026e-01	-1.561951e-01	-2.277112e-02	5.761334e-03	2.435690e-21	5.761334e-03	-5.761334e-03
0.69          	7.650523e-02	1.527529e-02	6.122994e-02	3.063644e-01	-4.473380e-03	3.108377e-01	-1.576556e-01	-2.297733e-02	5.737892e-03	2.443407e-21	5.737892e-03	-5.737892e-03
0.695         	7.619340e-02	1.491330e-02	6.128010e-02	3.091119e-01	-4.556164e-03	3.136681e-01	-1.591121e-01	-2.318340e-02	5.714505e-03	2.450149e-21	5.714505e-03	-5.714505e-03
0.7           	7.588239e-02	1.455155e-02	6.133084e-02	3.118620e-01	-4.639186e-03	3.165012e-01	-1.605702e-01	-2.338965e-02	5.691179e-03	2.455895e-21	5.691179e-03	-5.691179e-03
0.705         	7.556996e-02	1.419015e-02	6.137981e-02	3.145977e-01	-4.714750e-03	3.193125e-01	-1.620136e-01	-2.359483e-02	5.667747e-03	2.460663e-21	5.667747e-03	-5.667747e-03
0.71          	7.525869e-02	1.382954e-02	6.142915e-02	3.173307e-01	-4.788010e-03	3.221188e-01	-1.634534e-01	-2.379981e-02	5.644402e-03	2.464591e-21	5.644402e-03	-5.644402e-03
0.715         	7.494807e-02	1.346943e-02	6.147864e-02	3.200614e-01	-4.858796e-03	3.249202e-01	-1.648895e-01	-2.400460e-02	5.621105e-03	2.467743e-21	5.621105e-03	-5.621105e-03
0.72          	7.463710e-02	1.310975e-02	6.152734e-02	3.227839e-01	-4.925457e-03	3.277094e-01	-1.663174e-01	-2.420880e-02	5.597782e-03	2.470175e-21	5.597782e-03	-5.597782e-03
0.725         	7.432780e-02	1.275024e-02	6.157756e-02	3.255155e-01	-4.994359e-03	3.305098e-01	-1.677521e-01	-2.441366e-02	5.574585e-03	2.472047e-21	5.574585e-03	-5.574585e-03
0.73          	7.401693e-02	1.239117e-02	6.162577e-02	3.282307e-01	-5.053792e-03	3.332845e-01	-1.691691e-01	-2.461730e-02	5.551270e-03	2.473404e-21	5.551270e-03	-5.551270e-03
0.735         	7.370667e-02	1.203263e-02	6.167404e-02	3.309428e-01	-5.110202e-03	3.360530e-01	-1.705816e-01	-2.482071e-02	5.528000e-03	2.474177e-21	5.528000e-03	-5.528000e-03
0.74          	7.339797e-02	1.167475e-02	6.172322e-02	3.336564e-01	-5.166405e-03	3.388228e-01	-1.719946e-01	-2.502423e-02	5.504848e-03	2.474468e-21	5.504848e-03	-5.504848e-03
0.745         	7.309026e-02	1.131772e-02	6.177255e-02	3.363656e-01	-5.220577e-03	3.415861e-01	-1.734034e-01	-2.522742e-02	5.481770e-03	2.474300e-21	5.481770e-03	-5.481770e-03
0.75          	7.278212e-02	1.096155e-02	6.182057e-02	3.390601e-01	-5.269285e-03	3.443294e-01	-1.747993e-01	-2.542951e-02	5.458659e-03	2.473665e-21	5.458659e-03	-5.458659e-03
0.755         	7.247392e-02	1.060558e-02	6.186834e-02	3.417517e-01	-5.316759e-03	3.470685e-01	-1.761926e-01	-2.563138e-02	5.435544e-03	2.472530e-21	5.435544e-03	-5.435544e-03
0.76          	7.216604e-02	1.024979e-02	6.191625e-02	3.444431e-01	-5.363458e-03	3.498065e-01	-1.775850e-01	-2.583323e-02	5.412453e-03	2.471018e-21	5.412453e-03	-5.412453e-03
0.765         	7.185903e-02	9.894871e-03	6.196416e-02	3.471286e-01	-5.408262e-03	3.525369e-01	-1.789726e-01	-2.603465e-02	5.389428e-03	2.469182e-21	5.389428e-03	-5.389428e-03
0.77          	7.155325e-02	9.540987e-03	6.201226e-02	3.498085e-01	-5.452857e-03	3.552614e-01	-1.803571e-01	-2.623564e-02	5.366494e-03	2.467045e-21	5.366494e-03	-5.366494e-03
0.775         	7.124822e-02	9.187993e-03	6.206023e-02	3.524816e-01	-5.495796e-03	3.579774e-01	-1.817366e-01	-2.643612e-02	5.343617e-03	2.464693e-21	5.343617e-03	-5.343617e-03
0.78          	7.094377e-02	8.835797e-03	6.210798e-02	3.551479e-01	-5.536368e-03	3.606842e-01	-1.831103e-01	-2.663609e-02	5.320783e-03	2.462147e-21	5.320783e-03	-5.320783e-03
0.785         	7.063960e-02	8.484147e-03	6.215545e-02	3.578087e-01	-5.574319e-03	3.633830e-01	-1.844787e-01	-2.683565e-02	5.297970e-03	2.459352e-21	5.297970e-03	-5.297970e-03
0.79          	7.022071e-02	8.051126e-03	6.216958e-02	3.607897e-01	-5.549183e-03	3.663389e-01	-1.859440e-01	-2.705923e-02	5.266553e-03	2.454867e-21	5.266553e-03	-5.266553e-03
0.795         	6.998964e-02	7.748601e-03	6.224104e-02	3.632829e-01	-5.618914e-03	3.689019e-01	-1.872604e-01	-2.724622e-02	5.249223e-03	2.453519e-21	5.249223e-03	-5.249223e-03
0.8           	6.971506e-02	7.418367e-03	6.229669e-02	3.658555e-01	-5.673866e-03	3.715294e-01	-1.886016e-01	-2.743916e-02	5.228630e-03	2.450105e-21	5.228630e-03	-5.228630e-03
0.805         	6.929936e-02	6.992460e-03	6.230690e-02	3.687629e-01	-5.640656e-03	3.744036e-01	-1.900221e-01	-2.765722e-02	5.197452e-03	2.444858e-21	5.197452e-03	-5.197452e-03
0.81          	6.907457e-02	6.694655e-03	6.237991e-02	3.712350e-01	-5.713416e-03	3.769485e-01	-1.913309e-01	-2.784263e-02	5.180592e-03	2.443189e-21	5.180592e-03	-5.180592e-03
0.815         	6.880430e-02	6.368244e-03	6.243606e-02	3.737854e-01	-5.764051e-03	3.795495e-01	-1.926568e-01	-2.803391e-02	5.160323e-03	2.439431e-21	5.160323e-03	-5.160323e-03
0.82          	6.838779e-02	5.943580e-03	6.244421e-02	3.766709e-01	-5.722364e-03	3.823932e-01	-1.940578e-01	-2.825031e-02	5.129084e-03	2.433613e-21	5.129084e-03	-5.129084e-03
0.825         	6.817132e-02	5.650947e-03	6.252038e-02	3.791295e-01	-5.794803e-03	3.849243e-01	-1.953596e-01	-2.843471e-02	5.112849e-03	2.431851e-21	5.112849e-03	-5.112849e-03
0.83          	6.777998e-02	5.242779e-03	6.253720e-02	3.819628e-01	-5.767416e-03	3.877302e-01	-1.967488e-01	-2.864721e-02	5.083499e-03	2.425703e-21	5.083499e-03	-5.083499e-03
0.835         	6.757477e-02	4.957809e-03	6.261696e-02	3.843944e-01	-5.845107e-03	3.902395e-01	-1.980423e-01	-2.882958e-02	5.068108e-03	2.423846e-21	5.068108e-03	-5.068108e-03